Compiler and run-time data
===========================================================================
RASPA 2.0.35
Compiled as a 64-bits application
Compiler: gcc 4.8.5 20150623 (Red Hat 4.8.5-39)
Compile Date = Apr 16 2020, Compile Time = 11:52:28

Tue May 26 14:49:09 2020
Simulation started on Tuesday, May 26.
The start time was 02:49 PM.

Hostname:    The start time was 02:49 PM.
OS type:     The start time was 02:49 PM.
OS release:  The start time was 02:49 PM.
OS version:  The start time was 02:49 PM.

Simulation
===========================================================================
Dimensions: 3
Random number seed: 1590500949
RASPA directory set to: /home/rb901/RASPA/simulations
String appended to output-files: 
Number of cycles: 2000
Number of initializing cycles: 0
Number of equilibration cycles: 0
Print every: 1000
Triclinic boundary condition applied
Timestep: 0.000500
	Degrees of freedom:                        0
	Translational Degrees of freedom:          0
	Rotational Degrees of freedom:             0
	Degrees of freedom Framework:              0


Mutual consistent basic set of units:
======================================
Unit of temperature: Kelvin
Unit of length:      1e-10 [m]
Unit of time:        1e-12 [s]
Unit of mass:        1.66054e-27 [kg]
Unit of charge:      1.60218e-19 [C/particle]

Derived units and their conversion factors:
===========================================
Unit of energy:              1.66054e-23 [J]
Unit of force:               1.66054e-13 [N]
Unit of pressure:            1.66054e+07 [Pa]
Unit of velocity:            100 [m/s]
Unit of acceleration:        1e-08 [m^2/s]
Unit of diffusion:           1e-08 [m^2/s]
Unit of dipole moment:       1.60218e-29 [C.m]
Unit of electric potential:  0.000103643 [V]
Unit of electric field:      1.03643e+06 [V]
Unit of polarizability:      1.54587e-35 [-]
Unit of Coulomb potential:   167101.0800066561  [K]
Unit of dielectric constant: 0.0000154587       [s^2 C^2/(kg m^3)]
Unit of wave vectors:        5.3088374589       [cm^1]
Boltzmann constant:          0.8314464919       [-]

Internal conversion factors:
===========================================
Energy to Kelvin:                                    1.2027242847
FH correction factor                                 2.0211930949
Heat capacity conversion factor:                    10.0000088723
From Debye to internal units:                        4.8032067991
Isothermal compressibility conversion factor:        0.0000000602

Energy conversion factors:
===========================================
From mdyne/A to kcal/mol/A^2:           143.933
From mdyne/A to kj/mol/A^2:             602.214
From mdyne/A to K/A^2:                  72429.7
From mdyne A/rad^2 to kcal/mol/deg^2:   0.0438444


Properties computed
===========================================================================
Movies: no
Radial Distribution Function: no
Number of molecules GCMC histogram: no
Histogram of the molecule positions: no
Free energy profiles: no
Pore Size Distribution Function: no
End-to-end distance: no
Histogram of the energy of the system: no
Compute thermodynamic factors: no
Framework spacing histograms: no
Residence times histograms: no
Distance histograms: no
Bend Angle histograms: no
Dihedral angle histograms: no
Angle between planes histograms: no
Molecule properties: no
Infra-red spectra: no
Mean-squared displacement using modified order-N algorithm: no
Velocity-autocorrelation function modified order-N algorithm: no
Rotational velocity-autocorrelation function modified order-N algorithm: no
Molecular orientation-autocorrelation function modified order-N algorithm: no
Bond orientation-autocorrelation function modified order-N algorithm: no
Mean-squared displacement (conventional algorithm): no
Velocity-autocorrelation function (conventional algorithm): no
3D density grid for adsorbates: no
Compute cation an/or adsorption sites: no
dcTST snapshots: no
Compute pressure and stress: no


VTK
===========================================================================
VTK fractional-range position framework atoms: [-0.001000,1.001000] [-0.001000,1.001000] [-0.001000,1.001000]
VTK fractional-range position framework bonds: [-0.151000,1.151000] [-0.151000,1.151000] [-0.151000,1.151000]
VTK fractional-range com-position adsorbate molecules: [-0.101000,1.101000] [-0.101000,1.101000] [-0.101000,1.101000]
VTK fractional-range com-position cation molecules: [-0.101000,1.101000] [-0.101000,1.101000] [-0.101000,1.101000]
	3D free energy grid made for the full simulation-cell


Thermo/Baro-stat NHC parameters
===========================================================================
External temperature: 298 [K]
Beta: 0 [energy unit]
External Pressure: 0 [Pa]


Thermostat chain-length: 3
Timescale parameter for thermostat: 0.150000 [ps]
Barostat chain-length:   3
Timescale parameter for barostat:   0.150000 [ps]

Number of Yoshida-Suzuki decomposition steps: 5
Number of respa steps: 5


Method and settings for electrostatics
===============================================================================
Dielectric constant of the medium : 1.000000
Charge from charge-equilibration: no
Ewald summation is used (exact solution of a periodic system)
Relative precision                : 1e-06
Alpha convergence parameter       : 0.265058
kvec (x,y,z)                      : 7 7 7


CFC-RXMC parameters
===========================================================================
Number of reactions: 0


Rattle parameters
===========================================================================
Distance constraint type: r^2-r^2_0
Bend angle constraint type: theta-theta_0
Dihedral angle constraint type: phi-phi_0
Inversion-bend angle constraint type: chi-chi_0
Out-of-plane distance constraint type: r-r_0


Spectra parameters
===========================================================================
Compute normal modes: no


Minimization parameters
===========================================================================
Generalized coordinates are: Cartesian center-of-mass, elements of the orientational matrix p1,p2,p3 and strain
Potential derivatives are evaluated: analytically
Translation of the system is removed from the generalized Hessian: no
Rotation of the system is removed from the generalized Hessian: no
Maximum step-length: 0.3
Convergence factor: 1
Maximum number of minimization steps: 10000
Use gradients in the line-minimizations: yes
RMS gradient tolerance: 1e-06
Maximum gradient tolerance: 1e-06

Distance constraints: 0
Angle constraints: 0
Dihedral constraints: 0

Improper dihedral constraints: 0

Inversion-bend constraints: 0

Out-of-plane constraints: 0

Harmonic distance constraints: 0
Harmonic angle constraints: 0
Harmonic dihedral constraints: 0

Dihedral mid-point measurements: 0

All framework atoms are fixed

Fixed adsorbate atoms:  
Fixed adsorbate groups (center-of-mass):  
Fixed adsorbate groups (orientation):  

Fixed cation atoms:  
Fixed cation groups (center-of-mass):  
Fixed cation groups (orientation):  


dcTST parameters
===========================================================================
Free energy profiles computed: no
Free energy profiles written every 5000 cycles
Free energy mapping: mapped to a,b,c-coordinates
BarrierPosition:       0.0000000000       0.0000000000       0.0000000000
BarrierNormal:         0.0000000000       0.0000000000       0.0000000000
Start with a molecule on top of the barrier: no
Maximum distance to barrier (e.g. distance to minumum free energy):       0.0000000000 [A]
Maximum trajectory time:      10.0000000000 [ps]
Each configuration is used with 5 different initial velocities


Cbmc parameters
===========================================================================
Biasing method: using only the VDW part
Number of trial positions:                                       10
Number of trial positions (reinsertion):                         10
Number of trial positions (partial reinsertion):                 10
Number of trial positions (identity-change):                     10
Number of trial positions (Gibbs particle transfer):             10
Number of trial positions (insertion/deletion):                  10
Number of trial positions (Widom insertion):                     10
Number of trial positions coupled Torsion-selection:             100
Number of trial positions first bead:                            10
Number of trial positions first bead (reinsertion):              10
Number of trial positions first bead (partial reinsertion):      10
Number of trial positions first bead (identity-change):          10
Number of trial positions first bead (Gibbs particle transfer):  10
Number of trial positions first bead (insertion/deletion):       10
Number of trial positions first bead (Widom insertion):          10
Number of trial moves per open bead:                             150
Target acceptance ratio small-mc scheme:                         0.400000
Energy overlap criteria:                                         1e+07
Minimal Rosenbluth factor:                                       1e-150


Pseudo atoms: 30
===========================================================================
Pseudo Atom[   0] Name UNIT     Oxidation:          Element: H    pdb-name: H    Scat. Types:   1   1 Mass=1.000000000  B-factor:0.000   
                 Charge=1.000000000          Polarization=0.000000000  [A^3] (considered a charged atom and no polarization)  Interactions: yes
                 Anisotropic factor:    0.000 [-] (Absolute), Radius:    1.000 [A], Framework-atom:  no
Pseudo Atom[   1] Name Ar       Oxidation: +0       Element: Ar   pdb-name: Ar   Scat. Types:  19  18 Mass=39.948000000 B-factor:1.000   
                 Charge=0.000000000          Polarization=0.000000000  [A^3] (considered a chargeless atom and no polarization)  Interactions: yes
                 Anisotropic factor:    0.000 [-] (Relative), Radius:    1.000 [A], Framework-atom:  no
Pseudo Atom[   2] Name He       Oxidation: +0       Element: He   pdb-name: He   Scat. Types:   3   2 Mass=4.002602000  B-factor:1.000   
                 Charge=0.000000000          Polarization=0.000000000  [A^3] (considered a chargeless atom and no polarization)  Interactions: yes
                 Anisotropic factor:    0.000 [-] (Relative), Radius:    1.000 [A], Framework-atom:  no
Pseudo Atom[   3] Name O_o2     Oxidation: +0       Element: O    pdb-name: O    Scat. Types:   9   8 Mass=15.999400000 B-factor:1.000   
                 Charge=-0.112000000         Polarization=0.000000000  [A^3] (considered a charged atom and no polarization)  Interactions: yes
                 Anisotropic factor:    0.000 [-] (Relative), Radius:    1.000 [A], Framework-atom:  no
Pseudo Atom[   4] Name O_com    Oxidation: +0       Element: M    pdb-name: M    Scat. Types:  -1  12 Mass=0.000000000  B-factor:1.000   
                 Charge=0.224000000          Polarization=0.000000000  [A^3] (considered a charged atom and no polarization)  Interactions: yes
                 Anisotropic factor:    0.000 [-] (Relative), Radius:    1.000 [A], Framework-atom:  no
Pseudo Atom[   5] Name N_n2     Oxidation: +0       Element: N    pdb-name: N    Scat. Types:   8   7 Mass=14.006700000 B-factor:1.000   
                 Charge=-0.482000000         Polarization=0.000000000  [A^3] (considered a charged atom and no polarization)  Interactions: yes
                 Anisotropic factor:    0.000 [-] (Relative), Radius:    0.700 [A], Framework-atom:  no
Pseudo Atom[   6] Name N_com    Oxidation: +0       Element: N    pdb-name: N    Scat. Types:   8   7 Mass=0.000000000  B-factor:1.000   
                 Charge=0.964000000          Polarization=0.000000000  [A^3] (considered a charged atom and no polarization)  Interactions: yes
                 Anisotropic factor:    0.000 [-] (Relative), Radius:    0.700 [A], Framework-atom:  no
Pseudo Atom[   7] Name C_co     Oxidation: +0       Element: C    pdb-name: C    Scat. Types:   7   6 Mass=12.000000000 B-factor:1.000   
                 Charge=-0.242400000         Polarization=0.000000000  [A^3] (considered a charged atom and no polarization)  Interactions: yes
                 Anisotropic factor:    0.000 [-] (Relative), Radius:    1.000 [A], Framework-atom:  no
Pseudo Atom[   8] Name O_co     Oxidation: +0       Element: O    pdb-name: O    Scat. Types:   9   8 Mass=15.999400000 B-factor:1.000   
                 Charge=-0.274400000         Polarization=0.000000000  [A^3] (considered a charged atom and no polarization)  Interactions: yes
                 Anisotropic factor:    0.000 [-] (Relative), Radius:    1.000 [A], Framework-atom:  no
Pseudo Atom[   9] Name COM_co   Oxidation: +0       Element: CO   pdb-name: CO   Scat. Types:  28  27 Mass=0.000000000  B-factor:1.000   
                 Charge=0.516800000          Polarization=0.000000000  [A^3] (considered a charged atom and no polarization)  Interactions: yes
                 Anisotropic factor:    0.000 [-] (Relative), Radius:    1.000 [A], Framework-atom:  no
Pseudo Atom[  10] Name C_co2    Oxidation: +0       Element: C    pdb-name: C    Scat. Types:   7   6 Mass=12.010700000 B-factor:1.000   
                 Charge=0.700000000          Polarization=0.000000000  [A^3] (considered a charged atom and no polarization)  Interactions: yes
                 Anisotropic factor:    0.000 [-] (Relative), Radius:    0.720 [A], Framework-atom:  no
Pseudo Atom[  11] Name O_co2    Oxidation: +0       Element: O    pdb-name: O    Scat. Types:   9   8 Mass=15.999400000 B-factor:1.000   
                 Charge=-0.350000000         Polarization=0.000000000  [A^3] (considered a charged atom and no polarization)  Interactions: yes
                 Anisotropic factor:    0.000 [-] (Relative), Radius:    0.680 [A], Framework-atom:  no
Pseudo Atom[  12] Name N_nh3    Oxidation: +0       Element: N    pdb-name: N    Scat. Types:   8   7 Mass=14.000000000 B-factor:1.000   
                 Charge=0.000000000          Polarization=0.000000000  [A^3] (considered a chargeless atom and no polarization)  Interactions: yes
                 Anisotropic factor:    0.000 [-] (Relative), Radius:    1.000 [A], Framework-atom:  no
Pseudo Atom[  13] Name H_nh3    Oxidation: +0       Element: H    pdb-name: H    Scat. Types:   1   1 Mass=1.007000000  B-factor:1.000   
                 Charge=0.410000000          Polarization=0.000000000  [A^3] (considered a charged atom and no polarization)  Interactions: yes
                 Anisotropic factor:    0.000 [-] (Relative), Radius:    1.000 [A], Framework-atom:  no
Pseudo Atom[  14] Name M_nh3    Oxidation: +0       Element: M    pdb-name: M    Scat. Types:  -1  12 Mass=0.000000000  B-factor:1.000   
                 Charge=-1.230000000         Polarization=0.000000000  [A^3] (considered a charged atom and no polarization)  Interactions: yes
                 Anisotropic factor:    0.000 [-] (Relative), Radius:    1.000 [A], Framework-atom:  no
Pseudo Atom[  15] Name Hw       Oxidation: +0       Element: H    pdb-name: H    Scat. Types:   1   1 Mass=1.007000000  B-factor:1.000   
                 Charge=0.520000000          Polarization=0.000000000  [A^3] (considered a charged atom and no polarization)  Interactions: yes
                 Anisotropic factor:    0.000 [-] (Relative), Radius:    1.000 [A], Framework-atom:  no
Pseudo Atom[  16] Name Ow       Oxidation: +0       Element: O    pdb-name: O    Scat. Types:   9   8 Mass=15.999400000 B-factor:1.000   
                 Charge=0.000000000          Polarization=0.000000000  [A^3] (considered a chargeless atom and no polarization)  Interactions: yes
                 Anisotropic factor:    0.000 [-] (Relative), Radius:    1.000 [A], Framework-atom:  no
Pseudo Atom[  17] Name M        Oxidation: +0       Element: M    pdb-name: M    Scat. Types:  -1  12 Mass=0.000000000  B-factor:1.000   
                 Charge=-1.040000000         Polarization=0.000000000  [A^3] (considered a charged atom and no polarization)  Interactions: yes
                 Anisotropic factor:    0.000 [-] (Relative), Radius:    1.000 [A], Framework-atom:  no
Pseudo Atom[  18] Name CH4_sp3  Oxidation: +0       Element: C    pdb-name: C    Scat. Types:   7   6 Mass=16.042460000 B-factor:1.000   
                 Charge=0.000000000          Polarization=0.000000000  [A^3] (considered a chargeless atom and no polarization)  Interactions: yes
                 Anisotropic factor:    0.000 [-] (Relative), Radius:    1.000 [A], Framework-atom:  no
Pseudo Atom[  19] Name CH3_sp3  Oxidation: +0       Element: C    pdb-name: C    Scat. Types:   7   6 Mass=15.034520000 B-factor:1.000   
                 Charge=0.000000000          Polarization=0.000000000  [A^3] (considered a chargeless atom and no polarization)  Interactions: yes
                 Anisotropic factor:    0.000 [-] (Relative), Radius:    1.000 [A], Framework-atom:  no
Pseudo Atom[  20] Name CH2_sp3  Oxidation: +0       Element: C    pdb-name: C    Scat. Types:   7   6 Mass=14.026580000 B-factor:1.000   
                 Charge=0.000000000          Polarization=0.000000000  [A^3] (considered a chargeless atom and no polarization)  Interactions: yes
                 Anisotropic factor:    0.000 [-] (Relative), Radius:    1.000 [A], Framework-atom:  no
Pseudo Atom[  21] Name CH_sp3   Oxidation: +0       Element: C    pdb-name: C    Scat. Types:   7   6 Mass=13.018640000 B-factor:1.000   
                 Charge=0.000000000          Polarization=0.000000000  [A^3] (considered a chargeless atom and no polarization)  Interactions: yes
                 Anisotropic factor:    0.000 [-] (Relative), Radius:    1.000 [A], Framework-atom:  no
Pseudo Atom[  22] Name C_sp3    Oxidation: +0       Element: C    pdb-name: C    Scat. Types:   7   6 Mass=12.000000000 B-factor:1.000   
                 Charge=0.000000000          Polarization=0.000000000  [A^3] (considered a chargeless atom and no polarization)  Interactions: yes
                 Anisotropic factor:    0.000 [-] (Relative), Radius:    1.000 [A], Framework-atom:  no
Pseudo Atom[  23] Name Zn1      Oxidation:          Element: Zn   pdb-name: Zn   Scat. Types:  31  30 Mass=65.408728088 B-factor:0.000   
                 Charge=0.000000000  (-na-)  Polarization=5.750000000  [A^3] (considered a chargeless atom and no polarization)  Interactions: yes
                 Anisotropic factor:    0.000 [-] (Absolute), Radius:    1.200 [A], Framework-atom: yes (charge definition not found)
Pseudo Atom[  24] Name O1       Oxidation:          Element: O    pdb-name: O    Scat. Types:   9   8 Mass=15.999404927 B-factor:0.000   
                 Charge=0.000000000  (-na-)  Polarization=0.802000000  [A^3] (considered a chargeless atom and no polarization)  Interactions: yes
                 Anisotropic factor:    0.000 [-] (Absolute), Radius:    0.640 [A], Framework-atom: yes (charge definition not found)
Pseudo Atom[  25] Name O2       Oxidation:          Element: O    pdb-name: O    Scat. Types:   9   8 Mass=15.999404927 B-factor:0.000   
                 Charge=0.000000000  (-na-)  Polarization=0.802000000  [A^3] (considered a chargeless atom and no polarization)  Interactions: yes
                 Anisotropic factor:    0.000 [-] (Absolute), Radius:    0.640 [A], Framework-atom: yes (charge definition not found)
Pseudo Atom[  26] Name C1       Oxidation:          Element: C    pdb-name: C    Scat. Types:   7   6 Mass=12.010735897 B-factor:0.000   
                 Charge=0.000000000  (-na-)  Polarization=1.760000000  [A^3] (considered a chargeless atom and no polarization)  Interactions: yes
                 Anisotropic factor:    0.000 [-] (Absolute), Radius:    0.750 [A], Framework-atom: yes (charge definition not found)
Pseudo Atom[  27] Name C2       Oxidation:          Element: C    pdb-name: C    Scat. Types:   7   6 Mass=12.010735897 B-factor:0.000   
                 Charge=0.000000000  (-na-)  Polarization=1.760000000  [A^3] (considered a chargeless atom and no polarization)  Interactions: yes
                 Anisotropic factor:    0.000 [-] (Absolute), Radius:    0.750 [A], Framework-atom: yes (charge definition not found)
Pseudo Atom[  28] Name C3       Oxidation:          Element: C    pdb-name: C    Scat. Types:   7   6 Mass=12.010735897 B-factor:0.000   
                 Charge=0.000000000  (-na-)  Polarization=1.760000000  [A^3] (considered a chargeless atom and no polarization)  Interactions: yes
                 Anisotropic factor:    0.000 [-] (Absolute), Radius:    0.750 [A], Framework-atom: yes (charge definition not found)
Pseudo Atom[  29] Name H1       Oxidation:          Element: H    pdb-name: H    Scat. Types:   1   1 Mass=1.007940754  B-factor:0.000   
                 Charge=0.000000000  (-na-)  Polarization=0.666793000  [A^3] (considered a chargeless atom and no polarization)  Interactions: yes
                 Anisotropic factor:    0.000 [-] (Absolute), Radius:    0.320 [A], Framework-atom: yes (charge definition not found)


Forcefield: UFF
===========================================================================
Minimal distance: 1
CutOff VDW : 12.000000 (144.000000)
CutOff VDW switching on: 10.800000 (116.640000)
CutOff charge-charge : 12.000000 (144.000000)
CutOff charge-charge switching on: 7.800000 (60.840000)
CutOff charge-bonddipole : 12.000000 (144.000000)
CutOff charge-bondipole switching on: 8.400000 (70.560000)
CutOff bonddipole-bonddipole : 12.000000 (144.000000)
CutOff bonddipole-bondipole switching on: 9.000000 (81.000000)
Polarization is neglected
All potentials are unshifted !!!!!!

General mixing rule: Lorentz-Berthelot mixing rules are used FIRST for cross terms
0 cross terms are overwritten using the individual mixing rules from the file 'force_field_mixing_rules.def'
and then 0 terms are overwritten using the specific interactions from the file 'force_field.def'

The force field and all the interactions:
     Ar -      Ar [LENNARD_JONES] p_0/k_B: 119.80000 [K], p_1: 3.40000 [A], shift/k_B:   0.00000000 [K], tailcorrection: no
     Ar -      He [LENNARD_JONES] p_0/k_B:  36.13613 [K], p_1: 3.02000 [A], shift/k_B:   0.00000000 [K], tailcorrection: no
     Ar -    O_o2 [LENNARD_JONES] p_0/k_B:  76.61723 [K], p_1: 3.21000 [A], shift/k_B:   0.00000000 [K], tailcorrection: no
     Ar -   O_com [ZERO_POTENTIAL]
     Ar -    N_n2 [LENNARD_JONES] p_0/k_B:  65.67191 [K], p_1: 3.35500 [A], shift/k_B:   0.00000000 [K], tailcorrection: no
     Ar -   N_com [ZERO_POTENTIAL]
     Ar -    C_co [LENNARD_JONES] p_0/k_B:  43.97376 [K], p_1: 3.51800 [A], shift/k_B:   0.00000000 [K], tailcorrection: no
     Ar -    O_co [LENNARD_JONES] p_0/k_B: 108.36087 [K], p_1: 3.18950 [A], shift/k_B:   0.00000000 [K], tailcorrection: no
     Ar -  COM_co [ZERO_POTENTIAL]
     Ar -   C_co2 [LENNARD_JONES] p_0/k_B:  56.87354 [K], p_1: 3.10000 [A], shift/k_B:   0.00000000 [K], tailcorrection: no
     Ar -   O_co2 [LENNARD_JONES] p_0/k_B:  97.28412 [K], p_1: 3.22500 [A], shift/k_B:   0.00000000 [K], tailcorrection: no
     Ar -   N_nh3 [LENNARD_JONES] p_0/k_B: 148.87243 [K], p_1: 3.41000 [A], shift/k_B:   0.00000000 [K], tailcorrection: no
     Ar -   H_nh3 [ZERO_POTENTIAL]
     Ar -      Hw [LENNARD_JONES] p_0/k_B:  51.50235 [K], p_1: 2.98600 [A], shift/k_B:   0.00000000 [K], tailcorrection: no
     Ar -      Ow [LENNARD_JONES] p_0/k_B:  96.66644 [K], p_1: 3.27682 [A], shift/k_B:   0.00000000 [K], tailcorrection: no
     Ar - CH4_sp3 [LENNARD_JONES] p_0/k_B: 133.15555 [K], p_1: 3.56500 [A], shift/k_B:   0.00000000 [K], tailcorrection: no
     Ar - CH3_sp3 [LENNARD_JONES] p_0/k_B: 108.35313 [K], p_1: 3.57500 [A], shift/k_B:   0.00000000 [K], tailcorrection: no
     Ar - CH2_sp3 [LENNARD_JONES] p_0/k_B:  74.23476 [K], p_1: 3.67500 [A], shift/k_B:   0.00000000 [K], tailcorrection: no
     Ar -  CH_sp3 [LENNARD_JONES] p_0/k_B:  34.61214 [K], p_1: 4.04000 [A], shift/k_B:   0.00000000 [K], tailcorrection: no
     Ar -   C_sp3 [LENNARD_JONES] p_0/k_B:   7.73951 [K], p_1: 4.90000 [A], shift/k_B:   0.00000000 [K], tailcorrection: no
     Ar -     Zn1 [LENNARD_JONES] p_0/k_B:  86.45901 [K], p_1: 2.93100 [A], shift/k_B:   0.00000000 [K], tailcorrection: no
     Ar -      O1 [LENNARD_JONES] p_0/k_B:  60.14151 [K], p_1: 3.25950 [A], shift/k_B:   0.00000000 [K], tailcorrection: no
     Ar -      O2 [LENNARD_JONES] p_0/k_B:  60.14151 [K], p_1: 3.25950 [A], shift/k_B:   0.00000000 [K], tailcorrection: no
     Ar -      C1 [LENNARD_JONES] p_0/k_B:  79.55974 [K], p_1: 3.41550 [A], shift/k_B:   0.00000000 [K], tailcorrection: no
     Ar -      C2 [LENNARD_JONES] p_0/k_B:  79.55974 [K], p_1: 3.41550 [A], shift/k_B:   0.00000000 [K], tailcorrection: no
     Ar -      C3 [LENNARD_JONES] p_0/k_B:  79.55974 [K], p_1: 3.41550 [A], shift/k_B:   0.00000000 [K], tailcorrection: no
     Ar -      H1 [LENNARD_JONES] p_0/k_B:  51.50235 [K], p_1: 2.98600 [A], shift/k_B:   0.00000000 [K], tailcorrection: no
     He -      He [LENNARD_JONES] p_0/k_B:  10.90000 [K], p_1: 2.64000 [A], shift/k_B:   0.00000000 [K], tailcorrection: no
     He -    O_o2 [LENNARD_JONES] p_0/k_B:  23.11060 [K], p_1: 2.83000 [A], shift/k_B:   0.00000000 [K], tailcorrection: no
     He -   O_com [ZERO_POTENTIAL]
     He -    N_n2 [LENNARD_JONES] p_0/k_B:  19.80909 [K], p_1: 2.97500 [A], shift/k_B:   0.00000000 [K], tailcorrection: no
     He -   N_com [ZERO_POTENTIAL]
     He -    C_co [LENNARD_JONES] p_0/k_B:  13.26412 [K], p_1: 3.13800 [A], shift/k_B:   0.00000000 [K], tailcorrection: no
     He -    O_co [LENNARD_JONES] p_0/k_B:  32.68566 [K], p_1: 2.80950 [A], shift/k_B:   0.00000000 [K], tailcorrection: no
     He -  COM_co [ZERO_POTENTIAL]
     He -   C_co2 [LENNARD_JONES] p_0/k_B:  17.15517 [K], p_1: 2.72000 [A], shift/k_B:   0.00000000 [K], tailcorrection: no
     He -   O_co2 [LENNARD_JONES] p_0/k_B:  29.34451 [K], p_1: 2.84500 [A], shift/k_B:   0.00000000 [K], tailcorrection: no
     He -   N_nh3 [LENNARD_JONES] p_0/k_B:  44.90546 [K], p_1: 3.03000 [A], shift/k_B:   0.00000000 [K], tailcorrection: no
     He -   H_nh3 [ZERO_POTENTIAL]
     He -      Hw [LENNARD_JONES] p_0/k_B:  15.53502 [K], p_1: 2.60600 [A], shift/k_B:   0.00000000 [K], tailcorrection: no
     He -      Ow [LENNARD_JONES] p_0/k_B:  29.15819 [K], p_1: 2.89682 [A], shift/k_B:   0.00000000 [K], tailcorrection: no
     He - CH4_sp3 [LENNARD_JONES] p_0/k_B:  40.16466 [K], p_1: 3.18500 [A], shift/k_B:   0.00000000 [K], tailcorrection: no
     He - CH3_sp3 [LENNARD_JONES] p_0/k_B:  32.68333 [K], p_1: 3.19500 [A], shift/k_B:   0.00000000 [K], tailcorrection: no
     He - CH2_sp3 [LENNARD_JONES] p_0/k_B:  22.39196 [K], p_1: 3.29500 [A], shift/k_B:   0.00000000 [K], tailcorrection: no
     He -  CH_sp3 [LENNARD_JONES] p_0/k_B:  10.44031 [K], p_1: 3.66000 [A], shift/k_B:   0.00000000 [K], tailcorrection: no
     He -   C_sp3 [LENNARD_JONES] p_0/k_B:   2.33452 [K], p_1: 4.52000 [A], shift/k_B:   0.00000000 [K], tailcorrection: no
     He -     Zn1 [LENNARD_JONES] p_0/k_B:  26.07925 [K], p_1: 2.55100 [A], shift/k_B:   0.00000000 [K], tailcorrection: no
     He -      O1 [LENNARD_JONES] p_0/k_B:  18.14092 [K], p_1: 2.87950 [A], shift/k_B:   0.00000000 [K], tailcorrection: no
     He -      O2 [LENNARD_JONES] p_0/k_B:  18.14092 [K], p_1: 2.87950 [A], shift/k_B:   0.00000000 [K], tailcorrection: no
     He -      C1 [LENNARD_JONES] p_0/k_B:  23.99817 [K], p_1: 3.03550 [A], shift/k_B:   0.00000000 [K], tailcorrection: no
     He -      C2 [LENNARD_JONES] p_0/k_B:  23.99817 [K], p_1: 3.03550 [A], shift/k_B:   0.00000000 [K], tailcorrection: no
     He -      C3 [LENNARD_JONES] p_0/k_B:  23.99817 [K], p_1: 3.03550 [A], shift/k_B:   0.00000000 [K], tailcorrection: no
     He -      H1 [LENNARD_JONES] p_0/k_B:  15.53502 [K], p_1: 2.60600 [A], shift/k_B:   0.00000000 [K], tailcorrection: no
   O_o2 -    O_o2 [LENNARD_JONES] p_0/k_B:  49.00000 [K], p_1: 3.02000 [A], shift/k_B:   0.00000000 [K], tailcorrection: no
   O_o2 -   O_com [ZERO_POTENTIAL]
   O_o2 -    N_n2 [LENNARD_JONES] p_0/k_B:  42.00000 [K], p_1: 3.16500 [A], shift/k_B:   0.00000000 [K], tailcorrection: no
   O_o2 -   N_com [ZERO_POTENTIAL]
   O_o2 -    C_co [LENNARD_JONES] p_0/k_B:  28.12310 [K], p_1: 3.32800 [A], shift/k_B:   0.00000000 [K], tailcorrection: no
   O_o2 -    O_co [LENNARD_JONES] p_0/k_B:  69.30141 [K], p_1: 2.99950 [A], shift/k_B:   0.00000000 [K], tailcorrection: no
   O_o2 -  COM_co [ZERO_POTENTIAL]
   O_o2 -   C_co2 [LENNARD_JONES] p_0/k_B:  36.37307 [K], p_1: 2.91000 [A], shift/k_B:   0.00000000 [K], tailcorrection: no
   O_o2 -   O_co2 [LENNARD_JONES] p_0/k_B:  62.21736 [K], p_1: 3.03500 [A], shift/k_B:   0.00000000 [K], tailcorrection: no
   O_o2 -   N_nh3 [LENNARD_JONES] p_0/k_B:  95.21029 [K], p_1: 3.22000 [A], shift/k_B:   0.00000000 [K], tailcorrection: no
   O_o2 -   H_nh3 [ZERO_POTENTIAL]
   O_o2 -      Hw [LENNARD_JONES] p_0/k_B:  32.93796 [K], p_1: 2.79600 [A], shift/k_B:   0.00000000 [K], tailcorrection: no
   O_o2 -      Ow [LENNARD_JONES] p_0/k_B:  61.82233 [K], p_1: 3.08683 [A], shift/k_B:   0.00000000 [K], tailcorrection: no
   O_o2 - CH4_sp3 [LENNARD_JONES] p_0/k_B:  85.15868 [K], p_1: 3.37500 [A], shift/k_B:   0.00000000 [K], tailcorrection: no
   O_o2 - CH3_sp3 [LENNARD_JONES] p_0/k_B:  69.29646 [K], p_1: 3.38500 [A], shift/k_B:   0.00000000 [K], tailcorrection: no
   O_o2 - CH2_sp3 [LENNARD_JONES] p_0/k_B:  47.47631 [K], p_1: 3.48500 [A], shift/k_B:   0.00000000 [K], tailcorrection: no
   O_o2 -  CH_sp3 [LENNARD_JONES] p_0/k_B:  22.13594 [K], p_1: 3.85000 [A], shift/k_B:   0.00000000 [K], tailcorrection: no
   O_o2 -   C_sp3 [LENNARD_JONES] p_0/k_B:   4.94975 [K], p_1: 4.71000 [A], shift/k_B:   0.00000000 [K], tailcorrection: no
   O_o2 -     Zn1 [LENNARD_JONES] p_0/k_B:  55.29424 [K], p_1: 2.74100 [A], shift/k_B:   0.00000000 [K], tailcorrection: no
   O_o2 -      O1 [LENNARD_JONES] p_0/k_B:  38.46307 [K], p_1: 3.06950 [A], shift/k_B:   0.00000000 [K], tailcorrection: no
   O_o2 -      O2 [LENNARD_JONES] p_0/k_B:  38.46307 [K], p_1: 3.06950 [A], shift/k_B:   0.00000000 [K], tailcorrection: no
   O_o2 -      C1 [LENNARD_JONES] p_0/k_B:  50.88186 [K], p_1: 3.22550 [A], shift/k_B:   0.00000000 [K], tailcorrection: no
   O_o2 -      C2 [LENNARD_JONES] p_0/k_B:  50.88186 [K], p_1: 3.22550 [A], shift/k_B:   0.00000000 [K], tailcorrection: no
   O_o2 -      C3 [LENNARD_JONES] p_0/k_B:  50.88186 [K], p_1: 3.22550 [A], shift/k_B:   0.00000000 [K], tailcorrection: no
   O_o2 -      H1 [LENNARD_JONES] p_0/k_B:  32.93796 [K], p_1: 2.79600 [A], shift/k_B:   0.00000000 [K], tailcorrection: no
  O_com -   O_com [ZERO_POTENTIAL]
  O_com -    N_n2 [ZERO_POTENTIAL]
  O_com -   N_com [ZERO_POTENTIAL]
  O_com -    C_co [ZERO_POTENTIAL]
  O_com -    O_co [ZERO_POTENTIAL]
  O_com -  COM_co [ZERO_POTENTIAL]
  O_com -   C_co2 [ZERO_POTENTIAL]
  O_com -   O_co2 [ZERO_POTENTIAL]
  O_com -   N_nh3 [ZERO_POTENTIAL]
  O_com -   H_nh3 [ZERO_POTENTIAL]
  O_com -   M_nh3 [ZERO_POTENTIAL]
  O_com -      Hw [ZERO_POTENTIAL]
  O_com -      Ow [ZERO_POTENTIAL]
  O_com -       M [ZERO_POTENTIAL]
  O_com - CH4_sp3 [ZERO_POTENTIAL]
  O_com - CH3_sp3 [ZERO_POTENTIAL]
  O_com - CH2_sp3 [ZERO_POTENTIAL]
  O_com -  CH_sp3 [ZERO_POTENTIAL]
  O_com -   C_sp3 [ZERO_POTENTIAL]
  O_com -     Zn1 [ZERO_POTENTIAL]
  O_com -      O1 [ZERO_POTENTIAL]
  O_com -      O2 [ZERO_POTENTIAL]
  O_com -      C1 [ZERO_POTENTIAL]
  O_com -      C2 [ZERO_POTENTIAL]
  O_com -      C3 [ZERO_POTENTIAL]
  O_com -      H1 [ZERO_POTENTIAL]
   N_n2 -    N_n2 [LENNARD_JONES] p_0/k_B:  36.00000 [K], p_1: 3.31000 [A], shift/k_B:   0.00000000 [K], tailcorrection: no
   N_n2 -   N_com [ZERO_POTENTIAL]
   N_n2 -    C_co [LENNARD_JONES] p_0/k_B:  24.10552 [K], p_1: 3.47300 [A], shift/k_B:   0.00000000 [K], tailcorrection: no
   N_n2 -    O_co [LENNARD_JONES] p_0/k_B:  59.40121 [K], p_1: 3.14450 [A], shift/k_B:   0.00000000 [K], tailcorrection: no
   N_n2 -  COM_co [ZERO_POTENTIAL]
   N_n2 -   C_co2 [LENNARD_JONES] p_0/k_B:  31.17691 [K], p_1: 3.05500 [A], shift/k_B:   0.00000000 [K], tailcorrection: no
   N_n2 -   O_co2 [LENNARD_JONES] p_0/k_B:  53.32917 [K], p_1: 3.18000 [A], shift/k_B:   0.00000000 [K], tailcorrection: no
   N_n2 -   N_nh3 [LENNARD_JONES] p_0/k_B:  81.60882 [K], p_1: 3.36500 [A], shift/k_B:   0.00000000 [K], tailcorrection: no
   N_n2 -   H_nh3 [ZERO_POTENTIAL]
   N_n2 -      Hw [LENNARD_JONES] p_0/k_B:  28.23253 [K], p_1: 2.94100 [A], shift/k_B:   0.00000000 [K], tailcorrection: no
   N_n2 -      Ow [LENNARD_JONES] p_0/k_B:  52.99057 [K], p_1: 3.23182 [A], shift/k_B:   0.00000000 [K], tailcorrection: no
   N_n2 - CH4_sp3 [LENNARD_JONES] p_0/k_B:  72.99315 [K], p_1: 3.52000 [A], shift/k_B:   0.00000000 [K], tailcorrection: no
   N_n2 - CH3_sp3 [LENNARD_JONES] p_0/k_B:  59.39697 [K], p_1: 3.53000 [A], shift/k_B:   0.00000000 [K], tailcorrection: no
   N_n2 - CH2_sp3 [LENNARD_JONES] p_0/k_B:  40.69398 [K], p_1: 3.63000 [A], shift/k_B:   0.00000000 [K], tailcorrection: no
   N_n2 -  CH_sp3 [LENNARD_JONES] p_0/k_B:  18.97367 [K], p_1: 3.99500 [A], shift/k_B:   0.00000000 [K], tailcorrection: no
   N_n2 -   C_sp3 [LENNARD_JONES] p_0/k_B:   4.24264 [K], p_1: 4.85500 [A], shift/k_B:   0.00000000 [K], tailcorrection: no
   N_n2 -     Zn1 [LENNARD_JONES] p_0/k_B:  47.39506 [K], p_1: 2.88600 [A], shift/k_B:   0.00000000 [K], tailcorrection: no
   N_n2 -      O1 [LENNARD_JONES] p_0/k_B:  32.96835 [K], p_1: 3.21450 [A], shift/k_B:   0.00000000 [K], tailcorrection: no
   N_n2 -      O2 [LENNARD_JONES] p_0/k_B:  32.96835 [K], p_1: 3.21450 [A], shift/k_B:   0.00000000 [K], tailcorrection: no
   N_n2 -      C1 [LENNARD_JONES] p_0/k_B:  43.61303 [K], p_1: 3.37050 [A], shift/k_B:   0.00000000 [K], tailcorrection: no
   N_n2 -      C2 [LENNARD_JONES] p_0/k_B:  43.61303 [K], p_1: 3.37050 [A], shift/k_B:   0.00000000 [K], tailcorrection: no
   N_n2 -      C3 [LENNARD_JONES] p_0/k_B:  43.61303 [K], p_1: 3.37050 [A], shift/k_B:   0.00000000 [K], tailcorrection: no
   N_n2 -      H1 [LENNARD_JONES] p_0/k_B:  28.23253 [K], p_1: 2.94100 [A], shift/k_B:   0.00000000 [K], tailcorrection: no
  N_com -   N_com [ZERO_POTENTIAL]
  N_com -    C_co [ZERO_POTENTIAL]
  N_com -    O_co [ZERO_POTENTIAL]
  N_com -  COM_co [ZERO_POTENTIAL]
  N_com -   C_co2 [ZERO_POTENTIAL]
  N_com -   O_co2 [ZERO_POTENTIAL]
  N_com -   N_nh3 [ZERO_POTENTIAL]
  N_com -   H_nh3 [ZERO_POTENTIAL]
  N_com -   M_nh3 [ZERO_POTENTIAL]
  N_com -      Hw [ZERO_POTENTIAL]
  N_com -      Ow [ZERO_POTENTIAL]
  N_com -       M [ZERO_POTENTIAL]
  N_com - CH4_sp3 [ZERO_POTENTIAL]
  N_com - CH3_sp3 [ZERO_POTENTIAL]
  N_com - CH2_sp3 [ZERO_POTENTIAL]
  N_com -  CH_sp3 [ZERO_POTENTIAL]
  N_com -   C_sp3 [ZERO_POTENTIAL]
  N_com -     Zn1 [ZERO_POTENTIAL]
  N_com -      O1 [ZERO_POTENTIAL]
  N_com -      O2 [ZERO_POTENTIAL]
  N_com -      C1 [ZERO_POTENTIAL]
  N_com -      C2 [ZERO_POTENTIAL]
  N_com -      C3 [ZERO_POTENTIAL]
  N_com -      H1 [ZERO_POTENTIAL]
   C_co -    C_co [LENNARD_JONES] p_0/k_B:  16.14100 [K], p_1: 3.63600 [A], shift/k_B:   0.00000000 [K], tailcorrection: no
   C_co -    O_co [LENNARD_JONES] p_0/k_B:  39.77492 [K], p_1: 3.30750 [A], shift/k_B:   0.00000000 [K], tailcorrection: no
   C_co -  COM_co [ZERO_POTENTIAL]
   C_co -   C_co2 [LENNARD_JONES] p_0/k_B:  20.87599 [K], p_1: 3.21800 [A], shift/k_B:   0.00000000 [K], tailcorrection: no
   C_co -   O_co2 [LENNARD_JONES] p_0/k_B:  35.70909 [K], p_1: 3.34300 [A], shift/k_B:   0.00000000 [K], tailcorrection: no
   C_co -   N_nh3 [LENNARD_JONES] p_0/k_B:  54.64508 [K], p_1: 3.52800 [A], shift/k_B:   0.00000000 [K], tailcorrection: no
   C_co -   H_nh3 [ZERO_POTENTIAL]
   C_co -      Hw [LENNARD_JONES] p_0/k_B:  18.90444 [K], p_1: 3.10400 [A], shift/k_B:   0.00000000 [K], tailcorrection: no
   C_co -      Ow [LENNARD_JONES] p_0/k_B:  35.48236 [K], p_1: 3.39482 [A], shift/k_B:   0.00000000 [K], tailcorrection: no
   C_co - CH4_sp3 [LENNARD_JONES] p_0/k_B:  48.87605 [K], p_1: 3.68300 [A], shift/k_B:   0.00000000 [K], tailcorrection: no
   C_co - CH3_sp3 [LENNARD_JONES] p_0/k_B:  39.77208 [K], p_1: 3.69300 [A], shift/k_B:   0.00000000 [K], tailcorrection: no
   C_co - CH2_sp3 [LENNARD_JONES] p_0/k_B:  27.24860 [K], p_1: 3.79300 [A], shift/k_B:   0.00000000 [K], tailcorrection: no
   C_co -  CH_sp3 [LENNARD_JONES] p_0/k_B:  12.70472 [K], p_1: 4.15800 [A], shift/k_B:   0.00000000 [K], tailcorrection: no
   C_co -   C_sp3 [LENNARD_JONES] p_0/k_B:   2.84086 [K], p_1: 5.01800 [A], shift/k_B:   0.00000000 [K], tailcorrection: no
   C_co -     Zn1 [LENNARD_JONES] p_0/k_B:  31.73563 [K], p_1: 3.04900 [A], shift/k_B:   0.00000000 [K], tailcorrection: no
   C_co -      O1 [LENNARD_JONES] p_0/k_B:  22.07553 [K], p_1: 3.37750 [A], shift/k_B:   0.00000000 [K], tailcorrection: no
   C_co -      O2 [LENNARD_JONES] p_0/k_B:  22.07553 [K], p_1: 3.37750 [A], shift/k_B:   0.00000000 [K], tailcorrection: no
   C_co -      C1 [LENNARD_JONES] p_0/k_B:  29.20318 [K], p_1: 3.53350 [A], shift/k_B:   0.00000000 [K], tailcorrection: no
   C_co -      C2 [LENNARD_JONES] p_0/k_B:  29.20318 [K], p_1: 3.53350 [A], shift/k_B:   0.00000000 [K], tailcorrection: no
   C_co -      C3 [LENNARD_JONES] p_0/k_B:  29.20318 [K], p_1: 3.53350 [A], shift/k_B:   0.00000000 [K], tailcorrection: no
   C_co -      H1 [LENNARD_JONES] p_0/k_B:  18.90444 [K], p_1: 3.10400 [A], shift/k_B:   0.00000000 [K], tailcorrection: no
   O_co -    O_co [LENNARD_JONES] p_0/k_B:  98.01400 [K], p_1: 2.97900 [A], shift/k_B:   0.00000000 [K], tailcorrection: no
   O_co -  COM_co [ZERO_POTENTIAL]
   O_co -   C_co2 [LENNARD_JONES] p_0/k_B:  51.44296 [K], p_1: 2.88950 [A], shift/k_B:   0.00000000 [K], tailcorrection: no
   O_co -   O_co2 [LENNARD_JONES] p_0/k_B:  87.99492 [K], p_1: 3.01450 [A], shift/k_B:   0.00000000 [K], tailcorrection: no
   O_co -   N_nh3 [LENNARD_JONES] p_0/k_B: 134.65731 [K], p_1: 3.19950 [A], shift/k_B:   0.00000000 [K], tailcorrection: no
   O_co -   H_nh3 [ZERO_POTENTIAL]
   O_co -      Hw [LENNARD_JONES] p_0/k_B:  46.58463 [K], p_1: 2.77550 [A], shift/k_B:   0.00000000 [K], tailcorrection: no
   O_co -      Ow [LENNARD_JONES] p_0/k_B:  87.43622 [K], p_1: 3.06632 [A], shift/k_B:   0.00000000 [K], tailcorrection: no
   O_co - CH4_sp3 [LENNARD_JONES] p_0/k_B: 120.44116 [K], p_1: 3.35450 [A], shift/k_B:   0.00000000 [K], tailcorrection: no
   O_co - CH3_sp3 [LENNARD_JONES] p_0/k_B:  98.00700 [K], p_1: 3.36450 [A], shift/k_B:   0.00000000 [K], tailcorrection: no
   O_co - CH2_sp3 [LENNARD_JONES] p_0/k_B:  67.14644 [K], p_1: 3.46450 [A], shift/k_B:   0.00000000 [K], tailcorrection: no
   O_co -  CH_sp3 [LENNARD_JONES] p_0/k_B:  31.30719 [K], p_1: 3.82950 [A], shift/k_B:   0.00000000 [K], tailcorrection: no
   O_co -   C_sp3 [LENNARD_JONES] p_0/k_B:   7.00050 [K], p_1: 4.68950 [A], shift/k_B:   0.00000000 [K], tailcorrection: no
   O_co -     Zn1 [LENNARD_JONES] p_0/k_B:  78.20345 [K], p_1: 2.72050 [A], shift/k_B:   0.00000000 [K], tailcorrection: no
   O_co -      O1 [LENNARD_JONES] p_0/k_B:  54.39888 [K], p_1: 3.04900 [A], shift/k_B:   0.00000000 [K], tailcorrection: no
   O_co -      O2 [LENNARD_JONES] p_0/k_B:  54.39888 [K], p_1: 3.04900 [A], shift/k_B:   0.00000000 [K], tailcorrection: no
   O_co -      C1 [LENNARD_JONES] p_0/k_B:  71.96296 [K], p_1: 3.20500 [A], shift/k_B:   0.00000000 [K], tailcorrection: no
   O_co -      C2 [LENNARD_JONES] p_0/k_B:  71.96296 [K], p_1: 3.20500 [A], shift/k_B:   0.00000000 [K], tailcorrection: no
   O_co -      C3 [LENNARD_JONES] p_0/k_B:  71.96296 [K], p_1: 3.20500 [A], shift/k_B:   0.00000000 [K], tailcorrection: no
   O_co -      H1 [LENNARD_JONES] p_0/k_B:  46.58463 [K], p_1: 2.77550 [A], shift/k_B:   0.00000000 [K], tailcorrection: no
 COM_co -  COM_co [ZERO_POTENTIAL]
 COM_co -   C_co2 [ZERO_POTENTIAL]
 COM_co -   O_co2 [ZERO_POTENTIAL]
 COM_co -   N_nh3 [ZERO_POTENTIAL]
 COM_co -   H_nh3 [ZERO_POTENTIAL]
 COM_co -   M_nh3 [ZERO_POTENTIAL]
 COM_co -      Hw [ZERO_POTENTIAL]
 COM_co -      Ow [ZERO_POTENTIAL]
 COM_co -       M [ZERO_POTENTIAL]
 COM_co - CH4_sp3 [ZERO_POTENTIAL]
 COM_co - CH3_sp3 [ZERO_POTENTIAL]
 COM_co - CH2_sp3 [ZERO_POTENTIAL]
 COM_co -  CH_sp3 [ZERO_POTENTIAL]
 COM_co -   C_sp3 [ZERO_POTENTIAL]
 COM_co -     Zn1 [ZERO_POTENTIAL]
 COM_co -      O1 [ZERO_POTENTIAL]
 COM_co -      O2 [ZERO_POTENTIAL]
 COM_co -      C1 [ZERO_POTENTIAL]
 COM_co -      C2 [ZERO_POTENTIAL]
 COM_co -      C3 [ZERO_POTENTIAL]
 COM_co -      H1 [ZERO_POTENTIAL]
  C_co2 -   C_co2 [LENNARD_JONES] p_0/k_B:  27.00000 [K], p_1: 2.80000 [A], shift/k_B:   0.00000000 [K], tailcorrection: no
  C_co2 -   O_co2 [LENNARD_JONES] p_0/k_B:  46.18441 [K], p_1: 2.92500 [A], shift/k_B:   0.00000000 [K], tailcorrection: no
  C_co2 -   N_nh3 [LENNARD_JONES] p_0/k_B:  70.67531 [K], p_1: 3.11000 [A], shift/k_B:   0.00000000 [K], tailcorrection: no
  C_co2 -   H_nh3 [ZERO_POTENTIAL]
  C_co2 -      Hw [LENNARD_JONES] p_0/k_B:  24.45009 [K], p_1: 2.68600 [A], shift/k_B:   0.00000000 [K], tailcorrection: no
  C_co2 -      Ow [LENNARD_JONES] p_0/k_B:  45.89118 [K], p_1: 2.97682 [A], shift/k_B:   0.00000000 [K], tailcorrection: no
  C_co2 - CH4_sp3 [LENNARD_JONES] p_0/k_B:  63.21392 [K], p_1: 3.26500 [A], shift/k_B:   0.00000000 [K], tailcorrection: no
  C_co2 - CH3_sp3 [LENNARD_JONES] p_0/k_B:  51.43928 [K], p_1: 3.27500 [A], shift/k_B:   0.00000000 [K], tailcorrection: no
  C_co2 - CH2_sp3 [LENNARD_JONES] p_0/k_B:  35.24202 [K], p_1: 3.37500 [A], shift/k_B:   0.00000000 [K], tailcorrection: no
  C_co2 -  CH_sp3 [LENNARD_JONES] p_0/k_B:  16.43168 [K], p_1: 3.74000 [A], shift/k_B:   0.00000000 [K], tailcorrection: no
  C_co2 -   C_sp3 [LENNARD_JONES] p_0/k_B:   3.67423 [K], p_1: 4.60000 [A], shift/k_B:   0.00000000 [K], tailcorrection: no
  C_co2 -     Zn1 [LENNARD_JONES] p_0/k_B:  41.04533 [K], p_1: 2.63100 [A], shift/k_B:   0.00000000 [K], tailcorrection: no
  C_co2 -      O1 [LENNARD_JONES] p_0/k_B:  28.55143 [K], p_1: 2.95950 [A], shift/k_B:   0.00000000 [K], tailcorrection: no
  C_co2 -      O2 [LENNARD_JONES] p_0/k_B:  28.55143 [K], p_1: 2.95950 [A], shift/k_B:   0.00000000 [K], tailcorrection: no
  C_co2 -      C1 [LENNARD_JONES] p_0/k_B:  37.76999 [K], p_1: 3.11550 [A], shift/k_B:   0.00000000 [K], tailcorrection: no
  C_co2 -      C2 [LENNARD_JONES] p_0/k_B:  37.76999 [K], p_1: 3.11550 [A], shift/k_B:   0.00000000 [K], tailcorrection: no
  C_co2 -      C3 [LENNARD_JONES] p_0/k_B:  37.76999 [K], p_1: 3.11550 [A], shift/k_B:   0.00000000 [K], tailcorrection: no
  C_co2 -      H1 [LENNARD_JONES] p_0/k_B:  24.45009 [K], p_1: 2.68600 [A], shift/k_B:   0.00000000 [K], tailcorrection: no
  O_co2 -   O_co2 [LENNARD_JONES] p_0/k_B:  79.00000 [K], p_1: 3.05000 [A], shift/k_B:   0.00000000 [K], tailcorrection: no
  O_co2 -   N_nh3 [LENNARD_JONES] p_0/k_B: 120.89251 [K], p_1: 3.23500 [A], shift/k_B:   0.00000000 [K], tailcorrection: no
  O_co2 -   H_nh3 [ZERO_POTENTIAL]
  O_co2 -      Hw [LENNARD_JONES] p_0/k_B:  41.82271 [K], p_1: 2.81100 [A], shift/k_B:   0.00000000 [K], tailcorrection: no
  O_co2 -      Ow [LENNARD_JONES] p_0/k_B:  78.49841 [K], p_1: 3.10182 [A], shift/k_B:   0.00000000 [K], tailcorrection: no
  O_co2 - CH4_sp3 [LENNARD_JONES] p_0/k_B: 108.12955 [K], p_1: 3.39000 [A], shift/k_B:   0.00000000 [K], tailcorrection: no
  O_co2 - CH3_sp3 [LENNARD_JONES] p_0/k_B:  87.98864 [K], p_1: 3.40000 [A], shift/k_B:   0.00000000 [K], tailcorrection: no
  O_co2 - CH2_sp3 [LENNARD_JONES] p_0/k_B:  60.28267 [K], p_1: 3.50000 [A], shift/k_B:   0.00000000 [K], tailcorrection: no
  O_co2 -  CH_sp3 [LENNARD_JONES] p_0/k_B:  28.10694 [K], p_1: 3.86500 [A], shift/k_B:   0.00000000 [K], tailcorrection: no
  O_co2 -   C_sp3 [LENNARD_JONES] p_0/k_B:   6.28490 [K], p_1: 4.72500 [A], shift/k_B:   0.00000000 [K], tailcorrection: no
  O_co2 -     Zn1 [LENNARD_JONES] p_0/k_B:  70.20942 [K], p_1: 2.75600 [A], shift/k_B:   0.00000000 [K], tailcorrection: no
  O_co2 -      O1 [LENNARD_JONES] p_0/k_B:  48.83818 [K], p_1: 3.08450 [A], shift/k_B:   0.00000000 [K], tailcorrection: no
  O_co2 -      O2 [LENNARD_JONES] p_0/k_B:  48.83818 [K], p_1: 3.08450 [A], shift/k_B:   0.00000000 [K], tailcorrection: no
  O_co2 -      C1 [LENNARD_JONES] p_0/k_B:  64.60684 [K], p_1: 3.24050 [A], shift/k_B:   0.00000000 [K], tailcorrection: no
  O_co2 -      C2 [LENNARD_JONES] p_0/k_B:  64.60684 [K], p_1: 3.24050 [A], shift/k_B:   0.00000000 [K], tailcorrection: no
  O_co2 -      C3 [LENNARD_JONES] p_0/k_B:  64.60684 [K], p_1: 3.24050 [A], shift/k_B:   0.00000000 [K], tailcorrection: no
  O_co2 -      H1 [LENNARD_JONES] p_0/k_B:  41.82271 [K], p_1: 2.81100 [A], shift/k_B:   0.00000000 [K], tailcorrection: no
  N_nh3 -   N_nh3 [LENNARD_JONES] p_0/k_B: 185.00000 [K], p_1: 3.42000 [A], shift/k_B:   0.00000000 [K], tailcorrection: no
  N_nh3 -   H_nh3 [ZERO_POTENTIAL]
  N_nh3 -      Hw [LENNARD_JONES] p_0/k_B:  64.00066 [K], p_1: 2.99600 [A], shift/k_B:   0.00000000 [K], tailcorrection: no
  N_nh3 -      Ow [LENNARD_JONES] p_0/k_B: 120.12493 [K], p_1: 3.28682 [A], shift/k_B:   0.00000000 [K], tailcorrection: no
  N_nh3 - CH4_sp3 [LENNARD_JONES] p_0/k_B: 165.46903 [K], p_1: 3.57500 [A], shift/k_B:   0.00000000 [K], tailcorrection: no
  N_nh3 - CH3_sp3 [LENNARD_JONES] p_0/k_B: 134.64769 [K], p_1: 3.58500 [A], shift/k_B:   0.00000000 [K], tailcorrection: no
  N_nh3 - CH2_sp3 [LENNARD_JONES] p_0/k_B:  92.24966 [K], p_1: 3.68500 [A], shift/k_B:   0.00000000 [K], tailcorrection: no
  N_nh3 -  CH_sp3 [LENNARD_JONES] p_0/k_B:  43.01163 [K], p_1: 4.05000 [A], shift/k_B:   0.00000000 [K], tailcorrection: no
  N_nh3 -   C_sp3 [LENNARD_JONES] p_0/k_B:   9.61769 [K], p_1: 4.91000 [A], shift/k_B:   0.00000000 [K], tailcorrection: no
  N_nh3 -     Zn1 [LENNARD_JONES] p_0/k_B: 107.44043 [K], p_1: 2.94100 [A], shift/k_B:   0.00000000 [K], tailcorrection: no
  N_nh3 -      O1 [LENNARD_JONES] p_0/k_B:  74.73634 [K], p_1: 3.26950 [A], shift/k_B:   0.00000000 [K], tailcorrection: no
  N_nh3 -      O2 [LENNARD_JONES] p_0/k_B:  74.73634 [K], p_1: 3.26950 [A], shift/k_B:   0.00000000 [K], tailcorrection: no
  N_nh3 -      C1 [LENNARD_JONES] p_0/k_B:  98.86688 [K], p_1: 3.42550 [A], shift/k_B:   0.00000000 [K], tailcorrection: no
  N_nh3 -      C2 [LENNARD_JONES] p_0/k_B:  98.86688 [K], p_1: 3.42550 [A], shift/k_B:   0.00000000 [K], tailcorrection: no
  N_nh3 -      C3 [LENNARD_JONES] p_0/k_B:  98.86688 [K], p_1: 3.42550 [A], shift/k_B:   0.00000000 [K], tailcorrection: no
  N_nh3 -      H1 [LENNARD_JONES] p_0/k_B:  64.00066 [K], p_1: 2.99600 [A], shift/k_B:   0.00000000 [K], tailcorrection: no
  H_nh3 -   H_nh3 [ZERO_POTENTIAL]
  H_nh3 -   M_nh3 [ZERO_POTENTIAL]
  H_nh3 -      Hw [ZERO_POTENTIAL]
  H_nh3 -      Ow [ZERO_POTENTIAL]
  H_nh3 -       M [ZERO_POTENTIAL]
  H_nh3 - CH4_sp3 [ZERO_POTENTIAL]
  H_nh3 - CH3_sp3 [ZERO_POTENTIAL]
  H_nh3 - CH2_sp3 [ZERO_POTENTIAL]
  H_nh3 -  CH_sp3 [ZERO_POTENTIAL]
  H_nh3 -   C_sp3 [ZERO_POTENTIAL]
  H_nh3 -     Zn1 [ZERO_POTENTIAL]
  H_nh3 -      O1 [ZERO_POTENTIAL]
  H_nh3 -      O2 [ZERO_POTENTIAL]
  H_nh3 -      C1 [ZERO_POTENTIAL]
  H_nh3 -      C2 [ZERO_POTENTIAL]
  H_nh3 -      C3 [ZERO_POTENTIAL]
  H_nh3 -      H1 [ZERO_POTENTIAL]
     Hw -      Hw [LENNARD_JONES] p_0/k_B:  22.14100 [K], p_1: 2.57200 [A], shift/k_B:   0.00000000 [K], tailcorrection: no
     Hw -      Ow [LENNARD_JONES] p_0/k_B:  41.55717 [K], p_1: 2.86282 [A], shift/k_B:   0.00000000 [K], tailcorrection: no
     Hw - CH4_sp3 [LENNARD_JONES] p_0/k_B:  57.24393 [K], p_1: 3.15100 [A], shift/k_B:   0.00000000 [K], tailcorrection: no
     Hw - CH3_sp3 [LENNARD_JONES] p_0/k_B:  46.58131 [K], p_1: 3.16100 [A], shift/k_B:   0.00000000 [K], tailcorrection: no
     Hw - CH2_sp3 [LENNARD_JONES] p_0/k_B:  31.91373 [K], p_1: 3.26100 [A], shift/k_B:   0.00000000 [K], tailcorrection: no
     Hw -  CH_sp3 [LENNARD_JONES] p_0/k_B:  14.87985 [K], p_1: 3.62600 [A], shift/k_B:   0.00000000 [K], tailcorrection: no
     Hw -   C_sp3 [LENNARD_JONES] p_0/k_B:   3.32724 [K], p_1: 4.48600 [A], shift/k_B:   0.00000000 [K], tailcorrection: no
     Hw -     Zn1 [LENNARD_JONES] p_0/k_B:  37.16897 [K], p_1: 2.51700 [A], shift/k_B:   0.00000000 [K], tailcorrection: no
     Hw -      O1 [LENNARD_JONES] p_0/k_B:  25.85500 [K], p_1: 2.84550 [A], shift/k_B:   0.00000000 [K], tailcorrection: no
     Hw -      O2 [LENNARD_JONES] p_0/k_B:  25.85500 [K], p_1: 2.84550 [A], shift/k_B:   0.00000000 [K], tailcorrection: no
     Hw -      C1 [LENNARD_JONES] p_0/k_B:  34.20295 [K], p_1: 3.00150 [A], shift/k_B:   0.00000000 [K], tailcorrection: no
     Hw -      C2 [LENNARD_JONES] p_0/k_B:  34.20295 [K], p_1: 3.00150 [A], shift/k_B:   0.00000000 [K], tailcorrection: no
     Hw -      C3 [LENNARD_JONES] p_0/k_B:  34.20295 [K], p_1: 3.00150 [A], shift/k_B:   0.00000000 [K], tailcorrection: no
     Hw -      H1 [LENNARD_JONES] p_0/k_B:  22.14100 [K], p_1: 2.57200 [A], shift/k_B:   0.00000000 [K], tailcorrection: no
     Ow -      Ow [LENNARD_JONES] p_0/k_B:  78.00000 [K], p_1: 3.15365 [A], shift/k_B:   0.00000000 [K], tailcorrection: no
     Ow - CH4_sp3 [LENNARD_JONES] p_0/k_B: 107.44301 [K], p_1: 3.44182 [A], shift/k_B:   0.00000000 [K], tailcorrection: no
     Ow - CH3_sp3 [LENNARD_JONES] p_0/k_B:  87.42997 [K], p_1: 3.45182 [A], shift/k_B:   0.00000000 [K], tailcorrection: no
     Ow - CH2_sp3 [LENNARD_JONES] p_0/k_B:  59.89992 [K], p_1: 3.55183 [A], shift/k_B:   0.00000000 [K], tailcorrection: no
     Ow -  CH_sp3 [LENNARD_JONES] p_0/k_B:  27.92848 [K], p_1: 3.91682 [A], shift/k_B:   0.00000000 [K], tailcorrection: no
     Ow -   C_sp3 [LENNARD_JONES] p_0/k_B:   6.24500 [K], p_1: 4.77683 [A], shift/k_B:   0.00000000 [K], tailcorrection: no
     Ow -     Zn1 [LENNARD_JONES] p_0/k_B:  69.76364 [K], p_1: 2.80783 [A], shift/k_B:   0.00000000 [K], tailcorrection: no
     Ow -      O1 [LENNARD_JONES] p_0/k_B:  48.52809 [K], p_1: 3.13633 [A], shift/k_B:   0.00000000 [K], tailcorrection: no
     Ow -      O2 [LENNARD_JONES] p_0/k_B:  48.52809 [K], p_1: 3.13633 [A], shift/k_B:   0.00000000 [K], tailcorrection: no
     Ow -      C1 [LENNARD_JONES] p_0/k_B:  64.19664 [K], p_1: 3.29232 [A], shift/k_B:   0.00000000 [K], tailcorrection: no
     Ow -      C2 [LENNARD_JONES] p_0/k_B:  64.19664 [K], p_1: 3.29232 [A], shift/k_B:   0.00000000 [K], tailcorrection: no
     Ow -      C3 [LENNARD_JONES] p_0/k_B:  64.19664 [K], p_1: 3.29232 [A], shift/k_B:   0.00000000 [K], tailcorrection: no
     Ow -      H1 [LENNARD_JONES] p_0/k_B:  41.55717 [K], p_1: 2.86282 [A], shift/k_B:   0.00000000 [K], tailcorrection: no
CH4_sp3 - CH4_sp3 [LENNARD_JONES] p_0/k_B: 148.00000 [K], p_1: 3.73000 [A], shift/k_B:   0.00000000 [K], tailcorrection: no
CH4_sp3 - CH3_sp3 [LENNARD_JONES] p_0/k_B: 120.43255 [K], p_1: 3.74000 [A], shift/k_B:   0.00000000 [K], tailcorrection: no
CH4_sp3 - CH2_sp3 [LENNARD_JONES] p_0/k_B:  82.51061 [K], p_1: 3.84000 [A], shift/k_B:   0.00000000 [K], tailcorrection: no
CH4_sp3 -  CH_sp3 [LENNARD_JONES] p_0/k_B:  38.47077 [K], p_1: 4.20500 [A], shift/k_B:   0.00000000 [K], tailcorrection: no
CH4_sp3 -   C_sp3 [LENNARD_JONES] p_0/k_B:   8.60233 [K], p_1: 5.06500 [A], shift/k_B:   0.00000000 [K], tailcorrection: no
CH4_sp3 -     Zn1 [LENNARD_JONES] p_0/k_B:  96.09764 [K], p_1: 3.09600 [A], shift/k_B:   0.00000000 [K], tailcorrection: no
CH4_sp3 -      O1 [LENNARD_JONES] p_0/k_B:  66.84621 [K], p_1: 3.42450 [A], shift/k_B:   0.00000000 [K], tailcorrection: no
CH4_sp3 -      O2 [LENNARD_JONES] p_0/k_B:  66.84621 [K], p_1: 3.42450 [A], shift/k_B:   0.00000000 [K], tailcorrection: no
CH4_sp3 -      C1 [LENNARD_JONES] p_0/k_B:  88.42923 [K], p_1: 3.58050 [A], shift/k_B:   0.00000000 [K], tailcorrection: no
CH4_sp3 -      C2 [LENNARD_JONES] p_0/k_B:  88.42923 [K], p_1: 3.58050 [A], shift/k_B:   0.00000000 [K], tailcorrection: no
CH4_sp3 -      C3 [LENNARD_JONES] p_0/k_B:  88.42923 [K], p_1: 3.58050 [A], shift/k_B:   0.00000000 [K], tailcorrection: no
CH4_sp3 -      H1 [LENNARD_JONES] p_0/k_B:  57.24393 [K], p_1: 3.15100 [A], shift/k_B:   0.00000000 [K], tailcorrection: no
CH3_sp3 - CH3_sp3 [LENNARD_JONES] p_0/k_B:  98.00000 [K], p_1: 3.75000 [A], shift/k_B:   0.00000000 [K], tailcorrection: no
CH3_sp3 - CH2_sp3 [LENNARD_JONES] p_0/k_B:  67.14164 [K], p_1: 3.85000 [A], shift/k_B:   0.00000000 [K], tailcorrection: no
CH3_sp3 -  CH_sp3 [LENNARD_JONES] p_0/k_B:  31.30495 [K], p_1: 4.21500 [A], shift/k_B:   0.00000000 [K], tailcorrection: no
CH3_sp3 -   C_sp3 [LENNARD_JONES] p_0/k_B:   7.00000 [K], p_1: 5.07500 [A], shift/k_B:   0.00000000 [K], tailcorrection: no
CH3_sp3 -     Zn1 [LENNARD_JONES] p_0/k_B:  78.19786 [K], p_1: 3.10600 [A], shift/k_B:   0.00000000 [K], tailcorrection: no
CH3_sp3 -      O1 [LENNARD_JONES] p_0/k_B:  54.39500 [K], p_1: 3.43450 [A], shift/k_B:   0.00000000 [K], tailcorrection: no
CH3_sp3 -      O2 [LENNARD_JONES] p_0/k_B:  54.39500 [K], p_1: 3.43450 [A], shift/k_B:   0.00000000 [K], tailcorrection: no
CH3_sp3 -      C1 [LENNARD_JONES] p_0/k_B:  71.95782 [K], p_1: 3.59050 [A], shift/k_B:   0.00000000 [K], tailcorrection: no
CH3_sp3 -      C2 [LENNARD_JONES] p_0/k_B:  71.95782 [K], p_1: 3.59050 [A], shift/k_B:   0.00000000 [K], tailcorrection: no
CH3_sp3 -      C3 [LENNARD_JONES] p_0/k_B:  71.95782 [K], p_1: 3.59050 [A], shift/k_B:   0.00000000 [K], tailcorrection: no
CH3_sp3 -      H1 [LENNARD_JONES] p_0/k_B:  46.58131 [K], p_1: 3.16100 [A], shift/k_B:   0.00000000 [K], tailcorrection: no
CH2_sp3 - CH2_sp3 [LENNARD_JONES] p_0/k_B:  46.00000 [K], p_1: 3.95000 [A], shift/k_B:   0.00000000 [K], tailcorrection: no
CH2_sp3 -  CH_sp3 [LENNARD_JONES] p_0/k_B:  21.44761 [K], p_1: 4.31500 [A], shift/k_B:   0.00000000 [K], tailcorrection: no
CH2_sp3 -   C_sp3 [LENNARD_JONES] p_0/k_B:   4.79583 [K], p_1: 5.17500 [A], shift/k_B:   0.00000000 [K], tailcorrection: no
CH2_sp3 -     Zn1 [LENNARD_JONES] p_0/k_B:  53.57483 [K], p_1: 3.20600 [A], shift/k_B:   0.00000000 [K], tailcorrection: no
CH2_sp3 -      O1 [LENNARD_JONES] p_0/k_B:  37.26704 [K], p_1: 3.53450 [A], shift/k_B:   0.00000000 [K], tailcorrection: no
CH2_sp3 -      O2 [LENNARD_JONES] p_0/k_B:  37.26704 [K], p_1: 3.53450 [A], shift/k_B:   0.00000000 [K], tailcorrection: no
CH2_sp3 -      C1 [LENNARD_JONES] p_0/k_B:  49.29966 [K], p_1: 3.69050 [A], shift/k_B:   0.00000000 [K], tailcorrection: no
CH2_sp3 -      C2 [LENNARD_JONES] p_0/k_B:  49.29966 [K], p_1: 3.69050 [A], shift/k_B:   0.00000000 [K], tailcorrection: no
CH2_sp3 -      C3 [LENNARD_JONES] p_0/k_B:  49.29966 [K], p_1: 3.69050 [A], shift/k_B:   0.00000000 [K], tailcorrection: no
CH2_sp3 -      H1 [LENNARD_JONES] p_0/k_B:  31.91373 [K], p_1: 3.26100 [A], shift/k_B:   0.00000000 [K], tailcorrection: no
 CH_sp3 -  CH_sp3 [LENNARD_JONES] p_0/k_B:  10.00000 [K], p_1: 4.68000 [A], shift/k_B:   0.00000000 [K], tailcorrection: no
 CH_sp3 -   C_sp3 [LENNARD_JONES] p_0/k_B:   2.23607 [K], p_1: 5.54000 [A], shift/k_B:   0.00000000 [K], tailcorrection: no
 CH_sp3 -     Zn1 [LENNARD_JONES] p_0/k_B:  24.97939 [K], p_1: 3.57100 [A], shift/k_B:   0.00000000 [K], tailcorrection: no
 CH_sp3 -      O1 [LENNARD_JONES] p_0/k_B:  17.37585 [K], p_1: 3.89950 [A], shift/k_B:   0.00000000 [K], tailcorrection: no
 CH_sp3 -      O2 [LENNARD_JONES] p_0/k_B:  17.37585 [K], p_1: 3.89950 [A], shift/k_B:   0.00000000 [K], tailcorrection: no
 CH_sp3 -      C1 [LENNARD_JONES] p_0/k_B:  22.98608 [K], p_1: 4.05550 [A], shift/k_B:   0.00000000 [K], tailcorrection: no
 CH_sp3 -      C2 [LENNARD_JONES] p_0/k_B:  22.98608 [K], p_1: 4.05550 [A], shift/k_B:   0.00000000 [K], tailcorrection: no
 CH_sp3 -      C3 [LENNARD_JONES] p_0/k_B:  22.98608 [K], p_1: 4.05550 [A], shift/k_B:   0.00000000 [K], tailcorrection: no
 CH_sp3 -      H1 [LENNARD_JONES] p_0/k_B:  14.87985 [K], p_1: 3.62600 [A], shift/k_B:   0.00000000 [K], tailcorrection: no
  C_sp3 -   C_sp3 [LENNARD_JONES] p_0/k_B:   0.50000 [K], p_1: 6.40000 [A], shift/k_B:   0.00000000 [K], tailcorrection: no
  C_sp3 -     Zn1 [LENNARD_JONES] p_0/k_B:   5.58556 [K], p_1: 4.43100 [A], shift/k_B:   0.00000000 [K], tailcorrection: no
  C_sp3 -      O1 [LENNARD_JONES] p_0/k_B:   3.88536 [K], p_1: 4.75950 [A], shift/k_B:   0.00000000 [K], tailcorrection: no
  C_sp3 -      O2 [LENNARD_JONES] p_0/k_B:   3.88536 [K], p_1: 4.75950 [A], shift/k_B:   0.00000000 [K], tailcorrection: no
  C_sp3 -      C1 [LENNARD_JONES] p_0/k_B:   5.13984 [K], p_1: 4.91550 [A], shift/k_B:   0.00000000 [K], tailcorrection: no
  C_sp3 -      C2 [LENNARD_JONES] p_0/k_B:   5.13984 [K], p_1: 4.91550 [A], shift/k_B:   0.00000000 [K], tailcorrection: no
  C_sp3 -      C3 [LENNARD_JONES] p_0/k_B:   5.13984 [K], p_1: 4.91550 [A], shift/k_B:   0.00000000 [K], tailcorrection: no
  C_sp3 -      H1 [LENNARD_JONES] p_0/k_B:   3.32724 [K], p_1: 4.48600 [A], shift/k_B:   0.00000000 [K], tailcorrection: no
    Zn1 -     Zn1 [LENNARD_JONES] p_0/k_B:  62.39700 [K], p_1: 2.46200 [A], shift/k_B:   0.00000000 [K], tailcorrection: no
    Zn1 -      O1 [LENNARD_JONES] p_0/k_B:  43.40380 [K], p_1: 2.79050 [A], shift/k_B:   0.00000000 [K], tailcorrection: no
    Zn1 -      O2 [LENNARD_JONES] p_0/k_B:  43.40380 [K], p_1: 2.79050 [A], shift/k_B:   0.00000000 [K], tailcorrection: no
    Zn1 -      C1 [LENNARD_JONES] p_0/k_B:  57.41784 [K], p_1: 2.94650 [A], shift/k_B:   0.00000000 [K], tailcorrection: no
    Zn1 -      C2 [LENNARD_JONES] p_0/k_B:  57.41784 [K], p_1: 2.94650 [A], shift/k_B:   0.00000000 [K], tailcorrection: no
    Zn1 -      C3 [LENNARD_JONES] p_0/k_B:  57.41784 [K], p_1: 2.94650 [A], shift/k_B:   0.00000000 [K], tailcorrection: no
    Zn1 -      H1 [LENNARD_JONES] p_0/k_B:  37.16897 [K], p_1: 2.51700 [A], shift/k_B:   0.00000000 [K], tailcorrection: no
     O1 -      O1 [LENNARD_JONES] p_0/k_B:  30.19200 [K], p_1: 3.11900 [A], shift/k_B:   0.00000000 [K], tailcorrection: no
     O1 -      O2 [LENNARD_JONES] p_0/k_B:  30.19200 [K], p_1: 3.11900 [A], shift/k_B:   0.00000000 [K], tailcorrection: no
     O1 -      C1 [LENNARD_JONES] p_0/k_B:  39.94026 [K], p_1: 3.27500 [A], shift/k_B:   0.00000000 [K], tailcorrection: no
     O1 -      C2 [LENNARD_JONES] p_0/k_B:  39.94026 [K], p_1: 3.27500 [A], shift/k_B:   0.00000000 [K], tailcorrection: no
     O1 -      C3 [LENNARD_JONES] p_0/k_B:  39.94026 [K], p_1: 3.27500 [A], shift/k_B:   0.00000000 [K], tailcorrection: no
     O1 -      H1 [LENNARD_JONES] p_0/k_B:  25.85500 [K], p_1: 2.84550 [A], shift/k_B:   0.00000000 [K], tailcorrection: no
     O2 -      O2 [LENNARD_JONES] p_0/k_B:  30.19200 [K], p_1: 3.11900 [A], shift/k_B:   0.00000000 [K], tailcorrection: no
     O2 -      C1 [LENNARD_JONES] p_0/k_B:  39.94026 [K], p_1: 3.27500 [A], shift/k_B:   0.00000000 [K], tailcorrection: no
     O2 -      C2 [LENNARD_JONES] p_0/k_B:  39.94026 [K], p_1: 3.27500 [A], shift/k_B:   0.00000000 [K], tailcorrection: no
     O2 -      C3 [LENNARD_JONES] p_0/k_B:  39.94026 [K], p_1: 3.27500 [A], shift/k_B:   0.00000000 [K], tailcorrection: no
     O2 -      H1 [LENNARD_JONES] p_0/k_B:  25.85500 [K], p_1: 2.84550 [A], shift/k_B:   0.00000000 [K], tailcorrection: no
     C1 -      C1 [LENNARD_JONES] p_0/k_B:  52.83600 [K], p_1: 3.43100 [A], shift/k_B:   0.00000000 [K], tailcorrection: no
     C1 -      C2 [LENNARD_JONES] p_0/k_B:  52.83600 [K], p_1: 3.43100 [A], shift/k_B:   0.00000000 [K], tailcorrection: no
     C1 -      C3 [LENNARD_JONES] p_0/k_B:  52.83600 [K], p_1: 3.43100 [A], shift/k_B:   0.00000000 [K], tailcorrection: no
     C1 -      H1 [LENNARD_JONES] p_0/k_B:  34.20295 [K], p_1: 3.00150 [A], shift/k_B:   0.00000000 [K], tailcorrection: no
     C2 -      C2 [LENNARD_JONES] p_0/k_B:  52.83600 [K], p_1: 3.43100 [A], shift/k_B:   0.00000000 [K], tailcorrection: no
     C2 -      C3 [LENNARD_JONES] p_0/k_B:  52.83600 [K], p_1: 3.43100 [A], shift/k_B:   0.00000000 [K], tailcorrection: no
     C2 -      H1 [LENNARD_JONES] p_0/k_B:  34.20295 [K], p_1: 3.00150 [A], shift/k_B:   0.00000000 [K], tailcorrection: no
     C3 -      C3 [LENNARD_JONES] p_0/k_B:  52.83600 [K], p_1: 3.43100 [A], shift/k_B:   0.00000000 [K], tailcorrection: no
     C3 -      H1 [LENNARD_JONES] p_0/k_B:  34.20295 [K], p_1: 3.00150 [A], shift/k_B:   0.00000000 [K], tailcorrection: no
     H1 -      H1 [LENNARD_JONES] p_0/k_B:  22.14100 [K], p_1: 2.57200 [A], shift/k_B:   0.00000000 [K], tailcorrection: no


MoleculeDefinitions:
===========================================================================
Component 0 [N2] (Adsorbate molecule)

	MoleculeDefinitions: TraPPE
	Component contains (at least some) atoms which are charged
	Component contains no atoms with point dipoles (polarization)
	Component has a net charge of 0.000000

	Ideal chain Rosenbluth weight: 1
	Ideal chain total energy: 0.000000

	Critical temparure [K]: 126.192000
	Critical pressure [Pa]: 3395800.000000
	Acentric factor [-]: 0.037200

	RXMC partition factor [-]: 0.000000

	Vapour=stable, Liquid=metastable

	MolFraction:           1.0000000000 [-]
	Compressibility:       0.0000000000 [-]

	Density of the bulk fluid phase:       0.0000000000 [kg/m^3]


	Amount of excess molecules:       0.0000000000 [-]

	Conversion factor molecules/unit cell -> mol/kg:       0.1623418522 [-]
	Conversion factor molecules/unit cell -> gr/gr:       4.5477472435 [-]
	Conversion factor molecules/unit cell -> cm^3 STP/gr:       3.6387263389 [-]
	Conversion factor molecules/unit cell -> cm^3 STP/cm^3:       2.1592046669 [-]
	Conversion factor mol/kg -> cm^3 STP/gr:      22.4139757476 [-]
	Conversion factor mol/kg -> cm^3 STP/cm^3:      13.3003574685 [-]

	Partial pressure: -16605402.00000000000000 [Pa]
	                    -124540.51499999999942 [Torr]
	                       -166.05402000000001 [bar]
	                       -163.88257586972614 [atm]

	Fugacity coefficient:      -1.0000000000 [-]

	Partial fugacity:  16605402.00000000000000 [Pa]
	                     124540.51499999999942 [Torr]
	                        166.05402000000001 [bar]
	                        163.88257586972614 [atm]

	Molecule contains 3 number of atoms
		atom:    0  is of type:    5 [      N_n2] (group: 0)
		atom:    1  is of type:    6 [     N_com] (group: 0)
		atom:    2  is of type:    5 [      N_n2] (group: 0)

	Molecule contains 0 chirality centers

	Molecule contains 1 number of groups

		group: 0 containing: 3 elements
		-------------------------------------------------
		the group is rigid and linear
		Mass: 28.013400 [a.u.]
		Mass: 2.698615 [kg/m^3]

		Rotational Degrees of freedom: 2
		Diagonalized inertia vector:       8.4740535000
		                                   8.4740535000
		                                   0.0000000000
		number of atoms: 3
			element: 0 atom: 0 [      N_n2] Charge: -0.482000 Anisotropy: 0.000000 Position:  0.000000 -0.000000  0.550000 Connectivity: 1 (1 )
			element: 1 atom: 1 [     N_com] Charge:  0.964000 Anisotropy: 0.000000 Position:  0.000000 -0.000000  0.000000 Connectivity: 2 (0 2 )
			element: 2 atom: 2 [      N_n2] Charge: -0.482000 Anisotropy: 0.000000 Position:  0.000000 -0.000000 -0.550000 Connectivity: 1 (1 )
		number of permanent dipoles: 0
		number of polarizabilities: 0

		Dipole:           0.0000000000 [D]
		Quadrupole:       0.7003315673       0.7003315673      -1.4006631347 [D Angstrom]
		Quadrupole tensor [D Angstrom]
				       0.7003315673       0.0000000000       0.0000000000
				       0.0000000000       0.7003315673       0.0000000000
				       0.0000000000       0.0000000000      -1.4006631347

	Starting bead for growth               : 0

	Degrees of freedom                     : 0
	Translational degrees of freedom       : 0
	Rotational degrees of freedom          : 0
	Vibrational degrees of freedom         : 0
	Constraint degrees of freedom          : 0

	Number of atoms                        : 3

	Number of constraint bonds             : 0
	Number of constraint bends             : 0
	Number of constraint inversion bends   : 0
	Number of constraint torsions          : 0
	Number of constraint improper torsions : 0
	Number of constraint improper torsions : 0

	Number of bonds                        : 2
	Number of Urey-Bradleys                : 0
	Number of bends                        : 0
	Number of inversion bends              : 0
	Number of torsions                     : 0
	Number of improper torsions            : 0
	Number of improper torsions            : 0

	Number of bond/bond cross terms        : 0
	Number of bond/bend cross terms        : 0
	Number of bend/bend cross terms        : 0
	Number of stretch/torsion cross terms  : 0
	Number of bend/torsion cross terms     : 0

	Number of charges                      : 3
	Number of bond-dipoles                 : 0

	Number of intra Van der Waals                             : 0
	Number of intra charge-charge Coulomb                     : 0
	Number of intra charge-bonddipole Coulomb                 : 0
	Number of intra bonddipole-bonddipole Coulomb             : 0

	Number of excluded intra charge-charge Coulomb                     : 3
	Number of excluded intra charge-bonddipole Coulomb                 : 0
	Number of excluded intra bonddipole-bonddipole Coulomb             : 0

	Number of cbmc-config moves                               : 0

	Particle Moves:             
		ProbabilityTranslationMove:                  0.000000
			TranslationDirection:      XYZ
		Percentage of random translation moves:            0.000000
		Percentage of rotation moves:                      0.000000
		Percentage of random rotation moves:               0.000000
		Percentage of partial reinsertion moves:           0.000000
		Percentage of reinsertion moves:                   0.000000
		Percentage of reinsertion-in-place moves:          0.000000
		Percentage of reinsertion-in-plane moves:          0.000000
		Percentage of identity-change moves:               0.000000
		Percentage of swap (insert/delete) moves:          0.000000
		Percentage of CF swap lambda moves:                0.000000
		Percentage of CB/CFMC swap lambda moves:           0.000000
		Percentage of Widom insertion moves:               0.000000
		Percentage of CF-Widom insertion moves:            0.000000
		Percentage of Gibbs Widom insertion moves:         0.000000
		Percentage of surface-area moves:                  100.000000
		Percentage of Gibbs particle-transfer moves:       0.000000
		Percentage of Gibbs identity-change moves:         0.000000
		Percentage of CF Gibbs lambda-transfer moves:      0.000000
		Percentage of CB/CFMC Gibbs lambda-transfer moves: 0.000000
		Percentage of exchange frac./int. particle moves:  0.000000
		Percentage of fractional mol. to other box moves:  0.000000
		Percentage of lambda-change moves:                 0.000000
		Percentage of fractional to integer moves:         0.000000

	System Moves:
		Percentage of parallel-tempering moves:            0.000000
		Percentage of hyper-parallel-tempering moves:      0.000000
		Percentage of parallel-mol-fraction moves:         0.000000
			   Component A: 0 B: 1
		Percentage of chiral inversion moves:              0.000000
		Percentage of Hybrid-NVE moves:                    0.000000
		Percentage of Hybrid-NPH moves:                    0.000000
		Percentage of Hybrid-NPHPR moves:                  0.000000
		Percentage of volume-change moves:                 0.000000
		Percentage of box-shape-change moves:              0.000000
		Percentage of Gibbs volume-change moves:           0.000000
		Percentage of framework-change moves:              0.000000
		Percentage of framework-shift moves:               0.000000
		Percentage of reactive MC moves:                   0.000000

	Moves are restricted: No
	No biased sampling used for this component

	Number of Bonds: 2
	--------------------------------------------
	Bond interaction 0: A=0 B=1 Type:RIGID_BOND
		r_0=0.5500000000       [A]
	Bond interaction 1: A=1 B=2 Type:RIGID_BOND
		r_0=0.5500000000       [A]


	number of identity-config changes: 1
	--------------------------------------------
	nr fixed 1: 0 

	Number of pockets blocked in a unitcell: 0
		Pockets are NOT blocked for this component



Framework Status
===========================================================================
Lowenstein's rule obeyed by framework
	Framework is modelled as: rigid

	Number of charges:                               0
	Number of bonddipoles:                           0


System Properties
===========================================================================
Unit cell size: 25.832000 25.832000 25.832000
Cell angles (radians)  alpha: 1.570796 beta: 1.570796 gamma: 1.570796
Cell angles (degrees)  alpha: 90.000000 beta: 90.000000 gamma: 90.000000
Number of unitcells [a]: 1
Number of unitcells [b]: 1
Number of unitcells [c]: 1

TRICLINIC Boundary conditions: alpha!=90 or beta!=90 or gamma!=90

Cartesian axis A is collinear with crystallographic axis a
Cartesian axis B is collinear with (axb)xA
Cartesian axis C is collinear with (axb)

lengths of cell vectors:
 25.83200  25.83200  25.83200
cosines of cell angles:
  0.00000   0.00000   0.00000
perpendicular cell widths:
 25.83200  25.83200  25.83200
volume of the cell: 17237.492730368002 (A^3)

Orthogonalization matrix Box
Transforms fractional coordinates abc into orthonormal Cartesian coordinates xyz
Deorthogonalization matrix InverseBox
Transforms orthonormal Cartesian coordinates xyz into fractional coordinates xyz

Box[0]:
	   25.832000000000     0.000000000000     0.000000000000
	    0.000000000000    25.832000000000     0.000000000000
	    0.000000000000     0.000000000000    25.832000000000

Inverse box[0]:
	    0.038711675441    -0.000000000000    -0.000000000000
	    0.000000000000     0.038711675441    -0.000000000000
	    0.000000000000     0.000000000000     0.038711675441


Unitcell box[0]:
	   25.832000000000     0.000000000000     0.000000000000
	    0.000000000000    25.832000000000     0.000000000000
	    0.000000000000     0.000000000000    25.832000000000

Unitcell inverse box[0]:
	    0.038711675441    -0.000000000000    -0.000000000000
	    0.000000000000     0.038711675441    -0.000000000000
	    0.000000000000     0.000000000000     0.038711675441

lengths of cell vectors (inverse box):
  0.03871   0.03871   0.03871
cosines of cell angles (inverse box):
 -0.00000  -0.00000  -0.00000
perpendicular cell widths (inverse):
  0.03871   0.03871   0.03871
volume of the cell: 17237.492730368002 (A^3)

No replicas are used
Framework is simulated as 'rigid'
Number of framework atoms: 424
Number of framework atoms in the unit cell: 424
Framework Mass:  6159.841015789802 [g/mol]
Framework Density:   593.395728552254 [kg/m^3]    1.6852160402970 [cm^3/g]
Helium void fraction:    0.00000000
Available pore volume:    0.00000000 [A^3]    0.00000000 [cm^3/g]
Conversion factor from molecule/unit cell -> kmol/m^3: 0.096333, kmol/m^3 accesible pore volume: inf

Number Of Frameworks (per system): 1
----------------------------------------------------------------------
Framework name: IRMOF-1
Citation:
	author name:        'M. Eddaoudi, J. Kim, N. Rosi, D. Vodak, J. Wachter, M. O. Keeffe, and O.M. Yaghi'
	title:              'Systematic design of pore size and functionality in isoreticular MOFs and their application in methane storage'
	journal abbrev.:    'Science'
	journal volume:     295
	first page:         469
	last page:          472
	year:               2002
Space group: 225
	Identifier: 523
	short international Hermann-Mauguin symbol: F m -3 m
	long international Hermann-Mauguin symbol: F 4/m -3 2/m
	Hall symbol: -F 4 2 3
	Number of lattice translations: 4 [ (0,0,0) (0,0.5,0.5) (0.5,0,0.5) (0.5,0.5,0) ]
	acentric/centric: acentric
	chiral: yes
	enantiomorphic: no
	number of operators: 192
		'x,y,z'
		'-x,-y,z'
		'-x,y,-z'
		'x,-y,-z'
		'z,x,y'
		'z,-x,-y'
		'-z,-x,y'
		'-z,x,-y'
		'y,z,x'
		'-y,z,-x'
		'y,-z,-x'
		'-y,-z,x'
		'y,x,-z'
		'-y,-x,-z'
		'y,-x,z'
		'-y,x,z'
		'x,z,-y'
		'-x,z,y'
		'-x,-z,-y'
		'x,-z,y'
		'z,y,-x'
		'z,-y,x'
		'-z,y,x'
		'-z,-y,-x'
		'-x,-y,-z'
		'x,y,-z'
		'x,-y,z'
		'-x,y,z'
		'-z,-x,-y'
		'-z,x,y'
		'z,x,-y'
		'z,-x,y'
		'-y,-z,-x'
		'y,-z,x'
		'-y,z,x'
		'y,z,-x'
		'-y,-x,z'
		'y,x,z'
		'-y,x,-z'
		'y,-x,-z'
		'-x,-z,y'
		'x,-z,-y'
		'x,z,y'
		'-x,z,-y'
		'-z,-y,x'
		'-z,y,-x'
		'z,-y,-x'
		'z,y,x'
		'x,y+1/2,z+1/2'
		'-x,-y+1/2,z+1/2'
		'-x,y+1/2,-z+1/2'
		'x,-y+1/2,-z+1/2'
		'z,x+1/2,y+1/2'
		'z,-x+1/2,-y+1/2'
		'-z,-x+1/2,y+1/2'
		'-z,x+1/2,-y+1/2'
		'y,z+1/2,x+1/2'
		'-y,z+1/2,-x+1/2'
		'y,-z+1/2,-x+1/2'
		'-y,-z+1/2,x+1/2'
		'y,x+1/2,-z+1/2'
		'-y,-x+1/2,-z+1/2'
		'y,-x+1/2,z+1/2'
		'-y,x+1/2,z+1/2'
		'x,z+1/2,-y+1/2'
		'-x,z+1/2,y+1/2'
		'-x,-z+1/2,-y+1/2'
		'x,-z+1/2,y+1/2'
		'z,y+1/2,-x+1/2'
		'z,-y+1/2,x+1/2'
		'-z,y+1/2,x+1/2'
		'-z,-y+1/2,-x+1/2'
		'-x,-y+1/2,-z+1/2'
		'x,y+1/2,-z+1/2'
		'x,-y+1/2,z+1/2'
		'-x,y+1/2,z+1/2'
		'-z,-x+1/2,-y+1/2'
		'-z,x+1/2,y+1/2'
		'z,x+1/2,-y+1/2'
		'z,-x+1/2,y+1/2'
		'-y,-z+1/2,-x+1/2'
		'y,-z+1/2,x+1/2'
		'-y,z+1/2,x+1/2'
		'y,z+1/2,-x+1/2'
		'-y,-x+1/2,z+1/2'
		'y,x+1/2,z+1/2'
		'-y,x+1/2,-z+1/2'
		'y,-x+1/2,-z+1/2'
		'-x,-z+1/2,y+1/2'
		'x,-z+1/2,-y+1/2'
		'x,z+1/2,y+1/2'
		'-x,z+1/2,-y+1/2'
		'-z,-y+1/2,x+1/2'
		'-z,y+1/2,-x+1/2'
		'z,-y+1/2,-x+1/2'
		'z,y+1/2,x+1/2'
		'x+1/2,y,z+1/2'
		'-x+1/2,-y,z+1/2'
		'-x+1/2,y,-z+1/2'
		'x+1/2,-y,-z+1/2'
		'z+1/2,x,y+1/2'
		'z+1/2,-x,-y+1/2'
		'-z+1/2,-x,y+1/2'
		'-z+1/2,x,-y+1/2'
		'y+1/2,z,x+1/2'
		'-y+1/2,z,-x+1/2'
		'y+1/2,-z,-x+1/2'
		'-y+1/2,-z,x+1/2'
		'y+1/2,x,-z+1/2'
		'-y+1/2,-x,-z+1/2'
		'y+1/2,-x,z+1/2'
		'-y+1/2,x,z+1/2'
		'x+1/2,z,-y+1/2'
		'-x+1/2,z,y+1/2'
		'-x+1/2,-z,-y+1/2'
		'x+1/2,-z,y+1/2'
		'z+1/2,y,-x+1/2'
		'z+1/2,-y,x+1/2'
		'-z+1/2,y,x+1/2'
		'-z+1/2,-y,-x+1/2'
		'-x+1/2,-y,-z+1/2'
		'x+1/2,y,-z+1/2'
		'x+1/2,-y,z+1/2'
		'-x+1/2,y,z+1/2'
		'-z+1/2,-x,-y+1/2'
		'-z+1/2,x,y+1/2'
		'z+1/2,x,-y+1/2'
		'z+1/2,-x,y+1/2'
		'-y+1/2,-z,-x+1/2'
		'y+1/2,-z,x+1/2'
		'-y+1/2,z,x+1/2'
		'y+1/2,z,-x+1/2'
		'-y+1/2,-x,z+1/2'
		'y+1/2,x,z+1/2'
		'-y+1/2,x,-z+1/2'
		'y+1/2,-x,-z+1/2'
		'-x+1/2,-z,y+1/2'
		'x+1/2,-z,-y+1/2'
		'x+1/2,z,y+1/2'
		'-x+1/2,z,-y+1/2'
		'-z+1/2,-y,x+1/2'
		'-z+1/2,y,-x+1/2'
		'z+1/2,-y,-x+1/2'
		'z+1/2,y,x+1/2'
		'x+1/2,y+1/2,z'
		'-x+1/2,-y+1/2,z'
		'-x+1/2,y+1/2,-z'
		'x+1/2,-y+1/2,-z'
		'z+1/2,x+1/2,y'
		'z+1/2,-x+1/2,-y'
		'-z+1/2,-x+1/2,y'
		'-z+1/2,x+1/2,-y'
		'y+1/2,z+1/2,x'
		'-y+1/2,z+1/2,-x'
		'y+1/2,-z+1/2,-x'
		'-y+1/2,-z+1/2,x'
		'y+1/2,x+1/2,-z'
		'-y+1/2,-x+1/2,-z'
		'y+1/2,-x+1/2,z'
		'-y+1/2,x+1/2,z'
		'x+1/2,z+1/2,-y'
		'-x+1/2,z+1/2,y'
		'-x+1/2,-z+1/2,-y'
		'x+1/2,-z+1/2,y'
		'z+1/2,y+1/2,-x'
		'z+1/2,-y+1/2,x'
		'-z+1/2,y+1/2,x'
		'-z+1/2,-y+1/2,-x'
		'-x+1/2,-y+1/2,-z'
		'x+1/2,y+1/2,-z'
		'x+1/2,-y+1/2,z'
		'-x+1/2,y+1/2,z'
		'-z+1/2,-x+1/2,-y'
		'-z+1/2,x+1/2,y'
		'z+1/2,x+1/2,-y'
		'z+1/2,-x+1/2,y'
		'-y+1/2,-z+1/2,-x'
		'y+1/2,-z+1/2,x'
		'-y+1/2,z+1/2,x'
		'y+1/2,z+1/2,-x'
		'-y+1/2,-x+1/2,z'
		'y+1/2,x+1/2,z'
		'-y+1/2,x+1/2,-z'
		'y+1/2,-x+1/2,-z'
		'-x+1/2,-z+1/2,y'
		'x+1/2,-z+1/2,-y'
		'x+1/2,z+1/2,y'
		'-x+1/2,z+1/2,-y'
		'-z+1/2,-y+1/2,x'
		'-z+1/2,y+1/2,-x'
		'z+1/2,-y+1/2,-x'
		'z+1/2,y+1/2,x'
Framework is simulated as 'rigid'
Shift: 0.000000 0.000000 0.000000
Number of framework atoms: 424
Number of asymmetric atoms: 7
Number of free framework atoms: 0
Number of fixed framework atoms: 424
Number of framework atoms in the unit cell: 424
Framework Mass:  6159.841015789802 [g/mol]
Framework Density:   593.395728552254 [kg/m^3]
Framework has net charge: 0.000000
         largest charge : 0.000000
         smallest charge: 0.000000

Using FULL Host-guest interaction calculation (for testing purposes)

Current Atom Status
===========================================================================
Number of framework atoms        : 424
Number of cations molecules      : 0
Number of adsorbate molecules    : 0
Component    0 :    0 molecules
Pseudo Atoms    0 [    UNIT]:    0 atoms
Pseudo Atoms    1 [      Ar]:    0 atoms
Pseudo Atoms    2 [      He]:    0 atoms
Pseudo Atoms    3 [    O_o2]:    0 atoms
Pseudo Atoms    4 [   O_com]:    0 atoms
Pseudo Atoms    5 [    N_n2]:    0 atoms
Pseudo Atoms    6 [   N_com]:    0 atoms
Pseudo Atoms    7 [    C_co]:    0 atoms
Pseudo Atoms    8 [    O_co]:    0 atoms
Pseudo Atoms    9 [  COM_co]:    0 atoms
Pseudo Atoms   10 [   C_co2]:    0 atoms
Pseudo Atoms   11 [   O_co2]:    0 atoms
Pseudo Atoms   12 [   N_nh3]:    0 atoms
Pseudo Atoms   13 [   H_nh3]:    0 atoms
Pseudo Atoms   14 [   M_nh3]:    0 atoms
Pseudo Atoms   15 [      Hw]:    0 atoms
Pseudo Atoms   16 [      Ow]:    0 atoms
Pseudo Atoms   17 [       M]:    0 atoms
Pseudo Atoms   18 [ CH4_sp3]:    0 atoms
Pseudo Atoms   19 [ CH3_sp3]:    0 atoms
Pseudo Atoms   20 [ CH2_sp3]:    0 atoms
Pseudo Atoms   21 [  CH_sp3]:    0 atoms
Pseudo Atoms   22 [   C_sp3]:    0 atoms
Pseudo Atoms   23 [     Zn1]:   32 atoms
Pseudo Atoms   24 [      O1]:    8 atoms
Pseudo Atoms   25 [      O2]:   96 atoms
Pseudo Atoms   26 [      C1]:   48 atoms
Pseudo Atoms   27 [      C2]:   48 atoms
Pseudo Atoms   28 [      C3]:   96 atoms
Pseudo Atoms   29 [      H1]:   96 atoms


Current (initial full energy) Energy Status
===========================================================================

Internal energy:
Host stretch energy:                                            0.00000000
Host UreyBradley energy:                                        0.00000000
Host bend energy:                                               0.00000000
Host inversion-bend energy:                                     0.00000000
Host torsion energy:                                            0.00000000
Host improper torsion energy:                                   0.00000000
Host out-of-plane energy:                                       0.00000000
Host stretch/stretch energy:                                    0.00000000
Host bend/bend energy:                                          0.00000000
Host stretch/bend energy:                                       0.00000000
Host stretch/torsion energy:                                    0.00000000
Host bend/torsion energy:                                       0.00000000

Adsorbate stretch energy:                                       0.00000000
Adsorbate UreyBradley energy:                                   0.00000000
Adsorbate bend energy:                                          0.00000000
Adsorbate inversion-bend energy:                                0.00000000
Adsorbate torsion energy:                                       0.00000000
Adsorbate improper torsion energy:                              0.00000000
Adsorbate out-of-plane energy:                                  0.00000000
Adsorbate stretch/stretch energy:                               0.00000000
Adsorbate bend/bend energy:                                     0.00000000
Adsorbate stretch/bend energy:                                  0.00000000
Adsorbate stretch/torsion energy:                               0.00000000
Adsorbate bend/torsion energy:                                  0.00000000
Adsorbate intra VDW energy:                                     0.00000000
Adsorbate intra charge-charge Coulomb energy:                   0.00000000
Adsorbate intra charge-bonddipole Coulomb energy:               0.00000000
Adsorbate intra bonddipole-bonddipole Coulomb energy:           0.00000000

Cation stretch energy:                                          0.00000000
Cation UreyBradley energy:                                      0.00000000
Cation bend energy:                                             0.00000000
Cation inversion-bend energy:                                   0.00000000
Cation torsion energy:                                          0.00000000
Cation improper torsion energy:                                 0.00000000
Cation out-of-plane energy:                                     0.00000000
Cation stretch/stretch energy:                                  0.00000000
Cation bend/bend energy:                                        0.00000000
Cation stretch/bend energy:                                     0.00000000
Cation stretch/torsion energy:                                  0.00000000
Cation bend/torsion energy:                                     0.00000000
Cation intra VDW energy:                                        0.00000000
[...]
	Block[ 1]            0.00000 [K]
	Block[ 2]            0.00000 [K]
	Block[ 3]            0.00000 [K]
	Block[ 4]            0.00000 [K]
	------------------------------------------------------------------------------
	Average              0.00000 [K] +/-            0.00000 [K]

Average Cation Bend angle inversion energy:
===========================================
	Block[ 0]            0.00000 [K]
	Block[ 1]            0.00000 [K]
	Block[ 2]            0.00000 [K]
	Block[ 3]            0.00000 [K]
	Block[ 4]            0.00000 [K]
	------------------------------------------------------------------------------
	Average              0.00000 [K] +/-            0.00000 [K]

Average Cation Torsion energy:
==============================
	Block[ 0]            0.00000 [K]
	Block[ 1]            0.00000 [K]
	Block[ 2]            0.00000 [K]
	Block[ 3]            0.00000 [K]
	Block[ 4]            0.00000 [K]
	------------------------------------------------------------------------------
	Average              0.00000 [K] +/-            0.00000 [K]

Average Cation Improper Torsion energy:
=======================================
	Block[ 0]            0.00000 [K]
	Block[ 1]            0.00000 [K]
	Block[ 2]            0.00000 [K]
	Block[ 3]            0.00000 [K]
	Block[ 4]            0.00000 [K]
	------------------------------------------------------------------------------
	Average              0.00000 [K] +/-            0.00000 [K]

Average Cation Bond-Bond cross term energy:
=================================================
	Block[ 0]            0.00000 [K]
	Block[ 1]            0.00000 [K]
	Block[ 2]            0.00000 [K]
	Block[ 3]            0.00000 [K]
	Block[ 4]            0.00000 [K]
	------------------------------------------------------------------------------
	Average              0.00000 [K] +/-            0.00000 [K]

Average Cation Bend-Bend cross term energy:
===========================================
	Block[ 0]            0.00000 [K]
	Block[ 1]            0.00000 [K]
	Block[ 2]            0.00000 [K]
	Block[ 3]            0.00000 [K]
	Block[ 4]            0.00000 [K]
	------------------------------------------------------------------------------
	Average              0.00000 [K] +/-            0.00000 [K]

Average Cation Bond-Bend cross term energy:
==============================================
	Block[ 0]            0.00000 [K]
	Block[ 1]            0.00000 [K]
	Block[ 2]            0.00000 [K]
	Block[ 3]            0.00000 [K]
	Block[ 4]            0.00000 [K]
	------------------------------------------------------------------------------
	Average              0.00000 [K] +/-            0.00000 [K]

Average Cation Bond-Torsion cross term energy:
==============================================
	Block[ 0]            0.00000 [K]
	Block[ 1]            0.00000 [K]
	Block[ 2]            0.00000 [K]
	Block[ 3]            0.00000 [K]
	Block[ 4]            0.00000 [K]
	------------------------------------------------------------------------------
	Average              0.00000 [K] +/-            0.00000 [K]

Average Cation Bend-Torsion cross term energy:
==============================================
	Block[ 0]            0.00000 [K]
	Block[ 1]            0.00000 [K]
	Block[ 2]            0.00000 [K]
	Block[ 3]            0.00000 [K]
	Block[ 4]            0.00000 [K]
	------------------------------------------------------------------------------
	Average              0.00000 [K] +/-            0.00000 [K]

Average Cation Intra Van der Waals energy:
==========================================
	Block[ 0]            0.00000 [K]
	Block[ 1]            0.00000 [K]
	Block[ 2]            0.00000 [K]
	Block[ 3]            0.00000 [K]
	Block[ 4]            0.00000 [K]
	------------------------------------------------------------------------------
	Average              0.00000 [K] +/-            0.00000 [K]

Average Cation Intra charge-charge Coulomb energy:
====================================
	Block[ 0]            0.00000 [K]
	Block[ 1]            0.00000 [K]
	Block[ 2]            0.00000 [K]
	Block[ 3]            0.00000 [K]
	Block[ 4]            0.00000 [K]
	------------------------------------------------------------------------------
	Average              0.00000 [K] +/-            0.00000 [K]

Average Cation Intra charge-bonddipole Coulomb energy:
====================================
	Block[ 0]            0.00000 [K]
	Block[ 1]            0.00000 [K]
	Block[ 2]            0.00000 [K]
	Block[ 3]            0.00000 [K]
	Block[ 4]            0.00000 [K]
	------------------------------------------------------------------------------
	Average              0.00000 [K] +/-            0.00000 [K]

Average Cation Intra bonddipole-bonddipole Coulomb energy:
====================================
	Block[ 0]            0.00000 [K]
	Block[ 1]            0.00000 [K]
	Block[ 2]            0.00000 [K]
	Block[ 3]            0.00000 [K]
	Block[ 4]            0.00000 [K]
	------------------------------------------------------------------------------
	Average              0.00000 [K] +/-            0.00000 [K]

Average Host-Host energy:
=========================
	Block[ 0] 0.00000            Van der Waals: 0.00000            Coulomb: 0.00000            [K]
	Block[ 1] 0.00000            Van der Waals: 0.00000            Coulomb: 0.00000            [K]
	Block[ 2] 0.00000            Van der Waals: 0.00000            Coulomb: 0.00000            [K]
	Block[ 3] 0.00000            Van der Waals: 0.00000            Coulomb: 0.00000            [K]
	Block[ 4] 0.00000            Van der Waals: 0.00000            Coulomb: 0.00000            [K]
	------------------------------------------------------------------------------
	Average   0.00000            Van der Waals: 0.000000           Coulomb: 0.00000            [K]
	      +/- 0.00000                       +/- 0.000000                +/- 0.00000            [K]

Average Adsorbate-Adsorbate energy:
===================================
	Block[ 0] 0.00000            Van der Waals: 0.00000            Coulomb: 0.00000            [K]
	Block[ 1] 0.00000            Van der Waals: 0.00000            Coulomb: 0.00000            [K]
	Block[ 2] 0.00000            Van der Waals: 0.00000            Coulomb: 0.00000            [K]
	Block[ 3] 0.00000            Van der Waals: 0.00000            Coulomb: 0.00000            [K]
	Block[ 4] 0.00000            Van der Waals: 0.00000            Coulomb: 0.00000            [K]
	------------------------------------------------------------------------------
	Average   0.00000            Van der Waals: 0.000000           Coulomb: 0.00000            [K]
	      +/- 0.00000                       +/- 0.000000                +/- 0.00000            [K]

Average Cation-Cation energy:
=============================
	Block[ 0] 0.00000            Van der Waals: 0.00000            Coulomb: 0.00000            [K]
	Block[ 1] 0.00000            Van der Waals: 0.00000            Coulomb: 0.00000            [K]
	Block[ 2] 0.00000            Van der Waals: 0.00000            Coulomb: 0.00000            [K]
	Block[ 3] 0.00000            Van der Waals: 0.00000            Coulomb: 0.00000            [K]
	Block[ 4] 0.00000            Van der Waals: 0.00000            Coulomb: 0.00000            [K]
	------------------------------------------------------------------------------
	Average   0.00000            Van der Waals: 0.000000           Coulomb: 0.00000            [K]
	      +/- 0.00000                       +/- 0.000000                +/- 0.00000            [K]

Average Host-Adsorbate energy:
==============================
	Block[ 0] 0.00000            Van der Waals: 0.00000            Coulomb: 0.00000            [K]
	Block[ 1] 0.00000            Van der Waals: 0.00000            Coulomb: 0.00000            [K]
	Block[ 2] 0.00000            Van der Waals: 0.00000            Coulomb: 0.00000            [K]
	Block[ 3] 0.00000            Van der Waals: 0.00000            Coulomb: 0.00000            [K]
	Block[ 4] 0.00000            Van der Waals: 0.00000            Coulomb: 0.00000            [K]
	------------------------------------------------------------------------------
	Average   0.00000            Van der Waals: 0.000000           Coulomb: 0.00000            [K]
	      +/- 0.00000                       +/- 0.000000                +/- 0.00000            [K]

Average Host-Cation energy:
===========================
	Block[ 0] 0.00000            Van der Waals: 0.00000            Coulomb: 0.00000            [K]
	Block[ 1] 0.00000            Van der Waals: 0.00000            Coulomb: 0.00000            [K]
	Block[ 2] 0.00000            Van der Waals: 0.00000            Coulomb: 0.00000            [K]
	Block[ 3] 0.00000            Van der Waals: 0.00000            Coulomb: 0.00000            [K]
	Block[ 4] 0.00000            Van der Waals: 0.00000            Coulomb: 0.00000            [K]
	------------------------------------------------------------------------------
	Average   0.00000            Van der Waals: 0.000000           Coulomb: 0.00000            [K]
	      +/- 0.00000                       +/- 0.000000                +/- 0.00000            [K]

Average Adsorbate-Cation energy:
================================
	Block[ 0] 0.00000            Van der Waals: 0.00000            Coulomb: 0.00000            [K]
	Block[ 1] 0.00000            Van der Waals: 0.00000            Coulomb: 0.00000            [K]
	Block[ 2] 0.00000            Van der Waals: 0.00000            Coulomb: 0.00000            [K]
	Block[ 3] 0.00000            Van der Waals: 0.00000            Coulomb: 0.00000            [K]
	Block[ 4] 0.00000            Van der Waals: 0.00000            Coulomb: 0.00000            [K]
	------------------------------------------------------------------------------
	Average   0.00000            Van der Waals: 0.000000           Coulomb: 0.00000            [K]
	      +/- 0.00000                       +/- 0.000000                +/- 0.00000            [K]

Host polarization energy:
=======================
	Block[ 0]            0.00000 [K]
	Block[ 1]            0.00000 [K]
	Block[ 2]            0.00000 [K]
	Block[ 3]            0.00000 [K]
	Block[ 4]            0.00000 [K]
	------------------------------------------------------------------------------
	Average              0.00000 [K] +/-            0.00000 [K]

Adsorbate polarization energy:
=======================
	Block[ 0]            0.00000 [K]
	Block[ 1]            0.00000 [K]
	Block[ 2]            0.00000 [K]
	Block[ 3]            0.00000 [K]
	Block[ 4]            0.00000 [K]
	------------------------------------------------------------------------------
	Average              0.00000 [K] +/-            0.00000 [K]

Cation polarization energy:
=======================
	Block[ 0]            0.00000 [K]
	Block[ 1]            0.00000 [K]
	Block[ 2]            0.00000 [K]
	Block[ 3]            0.00000 [K]
	Block[ 4]            0.00000 [K]
	------------------------------------------------------------------------------
	Average              0.00000 [K] +/-            0.00000 [K]

Host back-polarization energy:
=======================
	Block[ 0]            0.00000 [K]
	Block[ 1]            0.00000 [K]
	Block[ 2]            0.00000 [K]
	Block[ 3]            0.00000 [K]
	Block[ 4]            0.00000 [K]
	------------------------------------------------------------------------------
	Average              0.00000 [K] +/-            0.00000 [K]

Adsorbate back-polarization energy:
=======================
	Block[ 0]            0.00000 [K]
	Block[ 1]            0.00000 [K]
	Block[ 2]            0.00000 [K]
	Block[ 3]            0.00000 [K]
	Block[ 4]            0.00000 [K]
	------------------------------------------------------------------------------
	Average              0.00000 [K] +/-            0.00000 [K]

Cation back-polarization energy:
=======================
	Block[ 0]            0.00000 [K]
	Block[ 1]            0.00000 [K]
	Block[ 2]            0.00000 [K]
	Block[ 3]            0.00000 [K]
	Block[ 4]            0.00000 [K]
	------------------------------------------------------------------------------
	Average              0.00000 [K] +/-            0.00000 [K]

Tail-correction energy:
=======================
	Block[ 0]            0.00000 [K]
	Block[ 1]            0.00000 [K]
	Block[ 2]            0.00000 [K]
	Block[ 3]            0.00000 [K]
	Block[ 4]            0.00000 [K]
	------------------------------------------------------------------------------
	Average              0.00000 [K] +/-            0.00000 [K]

Distance-constraints energy:
=======================
	Block[ 0]            0.00000 [K]
	Block[ 1]            0.00000 [K]
	Block[ 2]            0.00000 [K]
	Block[ 3]            0.00000 [K]
	Block[ 4]            0.00000 [K]
	------------------------------------------------------------------------------
	Average              0.00000 [K] +/-            0.00000 [K]

Angle-constraints energy:
=======================
	Block[ 0]            0.00000 [K]
	Block[ 1]            0.00000 [K]
	Block[ 2]            0.00000 [K]
	Block[ 3]            0.00000 [K]
	Block[ 4]            0.00000 [K]
	------------------------------------------------------------------------------
	Average              0.00000 [K] +/-            0.00000 [K]

Dihedral-constraints energy:
=======================
	Block[ 0]            0.00000 [K]
	Block[ 1]            0.00000 [K]
	Block[ 2]            0.00000 [K]
	Block[ 3]            0.00000 [K]
	Block[ 4]            0.00000 [K]
	------------------------------------------------------------------------------
	Average              0.00000 [K] +/-            0.00000 [K]

Inversion-bend constraints energy:
=======================
	Block[ 0]            0.00000 [K]
	Block[ 1]            0.00000 [K]
	Block[ 2]            0.00000 [K]
	Block[ 3]            0.00000 [K]
	Block[ 4]            0.00000 [K]
	------------------------------------------------------------------------------
	Average              0.00000 [K] +/-            0.00000 [K]

Out-of-plane-distance constraints energy:
=======================
	Block[ 0]            0.00000 [K]
	Block[ 1]            0.00000 [K]
	Block[ 2]            0.00000 [K]
	Block[ 3]            0.00000 [K]
	Block[ 4]            0.00000 [K]
	------------------------------------------------------------------------------
	Average              0.00000 [K] +/-            0.00000 [K]

Exclusion-constraints energy:
=======================
	Block[ 0]            0.00000 [K]
	Block[ 1]            0.00000 [K]
	Block[ 2]            0.00000 [K]
	Block[ 3]            0.00000 [K]
	Block[ 4]            0.00000 [K]
	------------------------------------------------------------------------------
	Average              0.00000 [K] +/-            0.00000 [K]

Total energy:
=============
	Block[ 0]            0.00000 [K]
	Block[ 1]            0.00000 [K]
	Block[ 2]            0.00000 [K]
	Block[ 3]            0.00000 [K]
	Block[ 4]            0.00000 [K]
	------------------------------------------------------------------------------
	Average              0.00000 [K] +/-            0.00000 [K]

Number of molecules:
====================

Component 0 [N2]
-------------------------------------------------------------
	Block[ 0] 0.00000            [-]
	Block[ 1] 0.00000            [-]
	Block[ 2] 0.00000            [-]
	Block[ 3] 0.00000            [-]
	Block[ 4] 0.00000            [-]
	------------------------------------------------------------------------------
	Average                                      0.0000000000 +/-       0.0000000000 [-]
	Average loading absolute [molecules/unit cell]        0.0000000000 +/-       0.0000000000 [-]
	Average loading absolute [mol/kg framework]          0.0000000000 +/-       0.0000000000 [-]
	Average loading absolute [milligram/gram framework]          0.0000000000 +/-       0.0000000000 [-]
	Average loading absolute [cm^3 (STP)/gr framework]          0.0000000000 +/-       0.0000000000 [-]
	Average loading absolute [cm^3 (STP)/cm^3 framework]          0.0000000000 +/-       0.0000000000 [-]

	Block[ 0] 0.00000            [-]
	Block[ 1] 0.00000            [-]
	Block[ 2] 0.00000            [-]
	Block[ 3] 0.00000            [-]
	Block[ 4] 0.00000            [-]
	------------------------------------------------------------------------------
	Average                                      0.0000000000 +/-       0.0000000000 [-]
	Average loading excess [molecules/unit cell]        0.0000000000 +/-       0.0000000000 [-]
	Average loading excess [mol/kg framework]          0.0000000000 +/-       0.0000000000 [-]
	Average loading excess [milligram/gram framework]          0.0000000000 +/-       0.0000000000 [-]
	Average loading excess [cm^3 (STP)/gr framework]          0.0000000000 +/-       0.0000000000 [-]
	Average loading excess [cm^3 (STP)/cm^3 framework]          0.0000000000 +/-       0.0000000000 [-]


Average Widom Rosenbluth factor:
================================
	Block[ 0] 0 [-]
	Block[ 1] 0 [-]
	Block[ 2] 0 [-]
	Block[ 3] 0 [-]
	Block[ 4] 0 [-]
	------------------------------------------------------------------------------
	[N2] Average Widom Rosenbluth-weight:   0 +/- 0.000000 [-]

Average Widom chemical potential:
=================================
	Block[ 0] 0 [-]
	Block[ 1] 0 [-]
	Block[ 2] 0 [-]
	Block[ 3] 0 [-]
	Block[ 4] 0 [-]
	------------------------------------------------------------------------------
	[N2] Average chemical potential:   0 +/- 0.000000 [K]

Average Widom Ideal-gas contribution:
=====================================
	Block[ 0] 0 [-]
	Block[ 1] 0 [-]
	Block[ 2] 0 [-]
	Block[ 3] 0 [-]
	Block[ 4] 0 [-]
	------------------------------------------------------------------------------
	[N2] Average Widom Ideal-gas chemical potential:   0 +/- 0.000000 [-]

Average Widom excess contribution:
==================================
	Block[ 0] 0 [-]
	Block[ 1] 0 [-]
	Block[ 2] 0 [-]
	Block[ 3] 0 [-]
	Block[ 4] 0 [-]
	------------------------------------------------------------------------------
	[N2] Average Widom excess chemical potential:   0 +/- 0.000000 [-]

Average Gibbs Widom Rosenbluth factor:
======================================
	Block[ 0] 0 [-]
	Block[ 1] 0 [-]
	Block[ 2] 0 [-]
	Block[ 3] 0 [-]
	Block[ 4] 0 [-]
	------------------------------------------------------------------------------
	[N2] Average Gibbs Widom Rosenbluth-weight:   0 +/- 0.000000 [-]

Average Gibbs Widom chemical potential:
=======================================
	Block[ 0] 0 [-]
	Block[ 1] 0 [-]
	Block[ 2] 0 [-]
	Block[ 3] 0 [-]
	Block[ 4] 0 [-]
	------------------------------------------------------------------------------
	[N2] Average Gibbs chemical potential:   0 +/- 0.000000 [K]

Average Gibbs Widom Ideal-gas contribution:
===========================================
	Block[ 0] 0 [-]
	Block[ 1] 0 [-]
	Block[ 2] 0 [-]
	Block[ 3] 0 [-]
	Block[ 4] 0 [-]
	------------------------------------------------------------------------------
	[N2] Average Gibbs Ideal-gas chemical potential:   0 +/- 0.000000 [-]

Average Gibbs Widom excess contribution:
===========================================
	Block[ 0] 0 [-]
	Block[ 1] 0 [-]
	Block[ 2] 0 [-]
	Block[ 3] 0 [-]
	Block[ 4] 0 [-]
	------------------------------------------------------------------------------
	[N2] Average Gibbs excess chemical potential:   0 +/- 0.000000 [-]

Average Henry coefficient:
==========================
	Block[ 0] 0 [mol/kg/Pa]
	Block[ 1] 0 [mol/kg/Pa]
	Block[ 2] 0 [mol/kg/Pa]
	Block[ 3] 0 [mol/kg/Pa]
	Block[ 4] 0 [mol/kg/Pa]
	------------------------------------------------------------------------------
	[N2] Average Henry coefficient:  0 +/- 0 [mol/kg/Pa]

Average adsorption energy <U_gh>_1-<U_h>_0 obtained from Widom-insertion:
(Note: the total heat of adsorption is dH=<U_gh>_1-<U_h>_0 - <U_g> - RT)
=========================================================================

Simulation finished,  0 warnings


Tue May 26 14:52:30 2020
Simulation finished on Tuesday, May 26.
The end time was 02:52 PM.

