Compiler and run-time data
===========================================================================
RASPA 2.0.35
Compiled as a 64-bits application
Compiler: gcc 4.8.5 20150623 (Red Hat 4.8.5-39)
Compile Date = Apr 16 2020, Compile Time = 11:52:28

Tue May 26 14:49:09 2020
Simulation started on Tuesday, May 26.
The start time was 02:49 PM.

Hostname:    The start time was 02:49 PM.
OS type:     The start time was 02:49 PM.
OS release:  The start time was 02:49 PM.
OS version:  The start time was 02:49 PM.

Simulation
===========================================================================
Dimensions: 3
Random number seed: 1590500949
RASPA directory set to: /home/rb901/RASPA/simulations
String appended to output-files: 
Number of cycles: 2000
Number of initializing cycles: 0
Number of equilibration cycles: 0
Print every: 1000
Triclinic boundary condition applied
Timestep: 0.000500
	Degrees of freedom:                        0
	Translational Degrees of freedom:          0
	Rotational Degrees of freedom:             0
	Degrees of freedom Framework:              0


Mutual consistent basic set of units:
======================================
Unit of temperature: Kelvin
Unit of length:      1e-10 [m]
Unit of time:        1e-12 [s]
Unit of mass:        1.66054e-27 [kg]
Unit of charge:      1.60218e-19 [C/particle]

Derived units and their conversion factors:
===========================================
Unit of energy:              1.66054e-23 [J]
Unit of force:               1.66054e-13 [N]
Unit of pressure:            1.66054e+07 [Pa]
Unit of velocity:            100 [m/s]
Unit of acceleration:        1e-08 [m^2/s]
Unit of diffusion:           1e-08 [m^2/s]
Unit of dipole moment:       1.60218e-29 [C.m]
Unit of electric potential:  0.000103643 [V]
Unit of electric field:      1.03643e+06 [V]
Unit of polarizability:      1.54587e-35 [-]
Unit of Coulomb potential:   167101.0800066561  [K]
Unit of dielectric constant: 0.0000154587       [s^2 C^2/(kg m^3)]
Unit of wave vectors:        5.3088374589       [cm^1]
Boltzmann constant:          0.8314464919       [-]

Internal conversion factors:
===========================================
Energy to Kelvin:                                    1.2027242847
FH correction factor                                 2.0211930949
Heat capacity conversion factor:                    10.0000088723
From Debye to internal units:                        4.8032067991
Isothermal compressibility conversion factor:        0.0000000602

Energy conversion factors:
===========================================
From mdyne/A to kcal/mol/A^2:           143.933
From mdyne/A to kj/mol/A^2:             602.214
From mdyne/A to K/A^2:                  72429.7
From mdyne A/rad^2 to kcal/mol/deg^2:   0.0438444


Properties computed
===========================================================================
Movies: no
Radial Distribution Function: no
Number of molecules GCMC histogram: no
Histogram of the molecule positions: no
Free energy profiles: no
Pore Size Distribution Function: no
End-to-end distance: no
Histogram of the energy of the system: no
Compute thermodynamic factors: no
Framework spacing histograms: no
Residence times histograms: no
Distance histograms: no
Bend Angle histograms: no
Dihedral angle histograms: no
Angle between planes histograms: no
Molecule properties: no
Infra-red spectra: no
Mean-squared displacement using modified order-N algorithm: no
Velocity-autocorrelation function modified order-N algorithm: no
Rotational velocity-autocorrelation function modified order-N algorithm: no
Molecular orientation-autocorrelation function modified order-N algorithm: no
Bond orientation-autocorrelation function modified order-N algorithm: no
Mean-squared displacement (conventional algorithm): no
Velocity-autocorrelation function (conventional algorithm): no
3D density grid for adsorbates: no
Compute cation an/or adsorption sites: no
dcTST snapshots: no
Compute pressure and stress: no


VTK
===========================================================================
VTK fractional-range position framework atoms: [-0.001000,1.001000] [-0.001000,1.001000] [-0.001000,1.001000]
VTK fractional-range position framework bonds: [-0.151000,1.151000] [-0.151000,1.151000] [-0.151000,1.151000]
VTK fractional-range com-position adsorbate molecules: [-0.101000,1.101000] [-0.101000,1.101000] [-0.101000,1.101000]
VTK fractional-range com-position cation molecules: [-0.101000,1.101000] [-0.101000,1.101000] [-0.101000,1.101000]
	3D free energy grid made for the full simulation-cell


Thermo/Baro-stat NHC parameters
===========================================================================
External temperature: 298 [K]
Beta: 0 [energy unit]
External Pressure: 0 [Pa]


Thermostat chain-length: 3
Timescale parameter for thermostat: 0.150000 [ps]
Barostat chain-length:   3
Timescale parameter for barostat:   0.150000 [ps]

Number of Yoshida-Suzuki decomposition steps: 5
Number of respa steps: 5


Method and settings for electrostatics
===============================================================================
Dielectric constant of the medium : 1.000000
Charge from charge-equilibration: no
Ewald summation is used (exact solution of a periodic system)
Relative precision                : 1e-06
Alpha convergence parameter       : 0.265058
kvec (x,y,z)                      : 7 7 7


CFC-RXMC parameters
===========================================================================
Number of reactions: 0


Rattle parameters
===========================================================================
Distance constraint type: r^2-r^2_0
Bend angle constraint type: theta-theta_0
Dihedral angle constraint type: phi-phi_0
Inversion-bend angle constraint type: chi-chi_0
Out-of-plane distance constraint type: r-r_0


Spectra parameters
===========================================================================
Compute normal modes: no


Minimization parameters
===========================================================================
Generalized coordinates are: Cartesian center-of-mass, elements of the orientational matrix p1,p2,p3 and strain
Potential derivatives are evaluated: analytically
Translation of the system is removed from the generalized Hessian: no
Rotation of the system is removed from the generalized Hessian: no
Maximum step-length: 0.3
Convergence factor: 1
Maximum number of minimization steps: 10000
Use gradients in the line-minimizations: yes
RMS gradient tolerance: 1e-06
Maximum gradient tolerance: 1e-06

Distance constraints: 0
Angle constraints: 0
Dihedral constraints: 0

Improper dihedral constraints: 0

Inversion-bend constraints: 0

Out-of-plane constraints: 0

Harmonic distance constraints: 0
Harmonic angle constraints: 0
Harmonic dihedral constraints: 0

Dihedral mid-point measurements: 0

All framework atoms are fixed

Fixed adsorbate atoms:  
Fixed adsorbate groups (center-of-mass):  
Fixed adsorbate groups (orientation):  

Fixed cation atoms:  
Fixed cation groups (center-of-mass):  
Fixed cation groups (orientation):  


dcTST parameters
===========================================================================
Free energy profiles computed: no
Free energy profiles written every 5000 cycles
Free energy mapping: mapped to a,b,c-coordinates
BarrierPosition:       0.0000000000       0.0000000000       0.0000000000
BarrierNormal:         0.0000000000       0.0000000000       0.0000000000
Start with a molecule on top of the barrier: no
Maximum distance to barrier (e.g. distance to minumum free energy):       0.0000000000 [A]
Maximum trajectory time:      10.0000000000 [ps]
Each configuration is used with 5 different initial velocities


Cbmc parameters
===========================================================================
Biasing method: using only the VDW part
Number of trial positions:                                       10
Number of trial positions (reinsertion):                         10
Number of trial positions (partial reinsertion):                 10
Number of trial positions (identity-change):                     10
Number of trial positions (Gibbs particle transfer):             10
Number of trial positions (insertion/deletion):                  10
Number of trial positions (Widom insertion):                     10
Number of trial positions coupled Torsion-selection:             100
Number of trial positions first bead:                            10
Number of trial positions first bead (reinsertion):              10
Number of trial positions first bead (partial reinsertion):      10
Number of trial positions first bead (identity-change):          10
Number of trial positions first bead (Gibbs particle transfer):  10
Number of trial positions first bead (insertion/deletion):       10
Number of trial positions first bead (Widom insertion):          10
Number of trial moves per open bead:                             150
Target acceptance ratio small-mc scheme:                         0.400000
Energy overlap criteria:                                         1e+07
Minimal Rosenbluth factor:                                       1e-150


Pseudo atoms: 125
===========================================================================
Pseudo Atom[   0] Name UNIT     Oxidation:          Element: H    pdb-name: H    Scat. Types:   1   1 Mass=1.000000000  B-factor:0.000   
                 Charge=1.000000000          Polarization=0.000000000  [A^3] (considered a charged atom and no polarization)  Interactions: yes
                 Anisotropic factor:    0.000 [-] (Absolute), Radius:    1.000 [A], Framework-atom:  no
Pseudo Atom[   1] Name Ar       Oxidation: +0       Element: Ar   pdb-name: Ar   Scat. Types:  19  18 Mass=39.948000000 B-factor:1.000   
                 Charge=0.000000000          Polarization=0.000000000  [A^3] (considered a chargeless atom and no polarization)  Interactions: yes
                 Anisotropic factor:    0.000 [-] (Relative), Radius:    1.000 [A], Framework-atom:  no
Pseudo Atom[   2] Name He       Oxidation: +0       Element: He   pdb-name: He   Scat. Types:   3   2 Mass=4.002602000  B-factor:1.000   
                 Charge=0.000000000          Polarization=0.000000000  [A^3] (considered a chargeless atom and no polarization)  Interactions: yes
                 Anisotropic factor:    0.000 [-] (Relative), Radius:    1.000 [A], Framework-atom:  no
Pseudo Atom[   3] Name O_o2     Oxidation: +0       Element: O    pdb-name: O    Scat. Types:   9   8 Mass=15.999400000 B-factor:1.000   
                 Charge=-0.112000000         Polarization=0.000000000  [A^3] (considered a charged atom and no polarization)  Interactions: yes
                 Anisotropic factor:    0.000 [-] (Relative), Radius:    1.000 [A], Framework-atom:  no
Pseudo Atom[   4] Name O_com    Oxidation: +0       Element: M    pdb-name: M    Scat. Types:  -1  12 Mass=0.000000000  B-factor:1.000   
                 Charge=0.224000000          Polarization=0.000000000  [A^3] (considered a charged atom and no polarization)  Interactions: yes
                 Anisotropic factor:    0.000 [-] (Relative), Radius:    1.000 [A], Framework-atom:  no
Pseudo Atom[   5] Name N_n2     Oxidation: +0       Element: N    pdb-name: N    Scat. Types:   8   7 Mass=14.006700000 B-factor:1.000   
                 Charge=-0.482000000         Polarization=0.000000000  [A^3] (considered a charged atom and no polarization)  Interactions: yes
                 Anisotropic factor:    0.000 [-] (Relative), Radius:    0.700 [A], Framework-atom:  no
Pseudo Atom[   6] Name N_com    Oxidation: +0       Element: N    pdb-name: N    Scat. Types:   8   7 Mass=0.000000000  B-factor:1.000   
                 Charge=0.964000000          Polarization=0.000000000  [A^3] (considered a charged atom and no polarization)  Interactions: yes
                 Anisotropic factor:    0.000 [-] (Relative), Radius:    0.700 [A], Framework-atom:  no
Pseudo Atom[   7] Name C_co     Oxidation: +0       Element: C    pdb-name: C    Scat. Types:   7   6 Mass=12.000000000 B-factor:1.000   
                 Charge=-0.242400000         Polarization=0.000000000  [A^3] (considered a charged atom and no polarization)  Interactions: yes
                 Anisotropic factor:    0.000 [-] (Relative), Radius:    1.000 [A], Framework-atom:  no
Pseudo Atom[   8] Name O_co     Oxidation: +0       Element: O    pdb-name: O    Scat. Types:   9   8 Mass=15.999400000 B-factor:1.000   
                 Charge=-0.274400000         Polarization=0.000000000  [A^3] (considered a charged atom and no polarization)  Interactions: yes
                 Anisotropic factor:    0.000 [-] (Relative), Radius:    1.000 [A], Framework-atom:  no
Pseudo Atom[   9] Name COM_co   Oxidation: +0       Element: CO   pdb-name: CO   Scat. Types:  28  27 Mass=0.000000000  B-factor:1.000   
                 Charge=0.516800000          Polarization=0.000000000  [A^3] (considered a charged atom and no polarization)  Interactions: yes
                 Anisotropic factor:    0.000 [-] (Relative), Radius:    1.000 [A], Framework-atom:  no
Pseudo Atom[  10] Name C_co2    Oxidation: +0       Element: C    pdb-name: C    Scat. Types:   7   6 Mass=12.010700000 B-factor:1.000   
                 Charge=0.700000000          Polarization=0.000000000  [A^3] (considered a charged atom and no polarization)  Interactions: yes
                 Anisotropic factor:    0.000 [-] (Relative), Radius:    0.720 [A], Framework-atom:  no
Pseudo Atom[  11] Name O_co2    Oxidation: +0       Element: O    pdb-name: O    Scat. Types:   9   8 Mass=15.999400000 B-factor:1.000   
                 Charge=-0.350000000         Polarization=0.000000000  [A^3] (considered a charged atom and no polarization)  Interactions: yes
                 Anisotropic factor:    0.000 [-] (Relative), Radius:    0.680 [A], Framework-atom:  no
Pseudo Atom[  12] Name N_nh3    Oxidation: +0       Element: N    pdb-name: N    Scat. Types:   8   7 Mass=14.000000000 B-factor:1.000   
                 Charge=0.000000000          Polarization=0.000000000  [A^3] (considered a chargeless atom and no polarization)  Interactions: yes
                 Anisotropic factor:    0.000 [-] (Relative), Radius:    1.000 [A], Framework-atom:  no
Pseudo Atom[  13] Name H_nh3    Oxidation: +0       Element: H    pdb-name: H    Scat. Types:   1   1 Mass=1.007000000  B-factor:1.000   
                 Charge=0.410000000          Polarization=0.000000000  [A^3] (considered a charged atom and no polarization)  Interactions: yes
                 Anisotropic factor:    0.000 [-] (Relative), Radius:    1.000 [A], Framework-atom:  no
Pseudo Atom[  14] Name M_nh3    Oxidation: +0       Element: M    pdb-name: M    Scat. Types:  -1  12 Mass=0.000000000  B-factor:1.000   
                 Charge=-1.230000000         Polarization=0.000000000  [A^3] (considered a charged atom and no polarization)  Interactions: yes
                 Anisotropic factor:    0.000 [-] (Relative), Radius:    1.000 [A], Framework-atom:  no
Pseudo Atom[  15] Name Hw       Oxidation: +0       Element: H    pdb-name: H    Scat. Types:   1   1 Mass=1.007000000  B-factor:1.000   
                 Charge=0.520000000          Polarization=0.000000000  [A^3] (considered a charged atom and no polarization)  Interactions: yes
                 Anisotropic factor:    0.000 [-] (Relative), Radius:    1.000 [A], Framework-atom:  no
Pseudo Atom[  16] Name Ow       Oxidation: +0       Element: O    pdb-name: O    Scat. Types:   9   8 Mass=15.999400000 B-factor:1.000   
                 Charge=0.000000000          Polarization=0.000000000  [A^3] (considered a chargeless atom and no polarization)  Interactions: yes
                 Anisotropic factor:    0.000 [-] (Relative), Radius:    1.000 [A], Framework-atom:  no
Pseudo Atom[  17] Name M        Oxidation: +0       Element: M    pdb-name: M    Scat. Types:  -1  12 Mass=0.000000000  B-factor:1.000   
                 Charge=-1.040000000         Polarization=0.000000000  [A^3] (considered a charged atom and no polarization)  Interactions: yes
                 Anisotropic factor:    0.000 [-] (Relative), Radius:    1.000 [A], Framework-atom:  no
Pseudo Atom[  18] Name CH4_sp3  Oxidation: +0       Element: C    pdb-name: C    Scat. Types:   7   6 Mass=16.042460000 B-factor:1.000   
                 Charge=0.000000000          Polarization=0.000000000  [A^3] (considered a chargeless atom and no polarization)  Interactions: yes
                 Anisotropic factor:    0.000 [-] (Relative), Radius:    1.000 [A], Framework-atom:  no
Pseudo Atom[  19] Name CH3_sp3  Oxidation: +0       Element: C    pdb-name: C    Scat. Types:   7   6 Mass=15.034520000 B-factor:1.000   
                 Charge=0.000000000          Polarization=0.000000000  [A^3] (considered a chargeless atom and no polarization)  Interactions: yes
                 Anisotropic factor:    0.000 [-] (Relative), Radius:    1.000 [A], Framework-atom:  no
Pseudo Atom[  20] Name CH2_sp3  Oxidation: +0       Element: C    pdb-name: C    Scat. Types:   7   6 Mass=14.026580000 B-factor:1.000   
                 Charge=0.000000000          Polarization=0.000000000  [A^3] (considered a chargeless atom and no polarization)  Interactions: yes
                 Anisotropic factor:    0.000 [-] (Relative), Radius:    1.000 [A], Framework-atom:  no
Pseudo Atom[  21] Name CH_sp3   Oxidation: +0       Element: C    pdb-name: C    Scat. Types:   7   6 Mass=13.018640000 B-factor:1.000   
                 Charge=0.000000000          Polarization=0.000000000  [A^3] (considered a chargeless atom and no polarization)  Interactions: yes
                 Anisotropic factor:    0.000 [-] (Relative), Radius:    1.000 [A], Framework-atom:  no
Pseudo Atom[  22] Name C_sp3    Oxidation: +0       Element: C    pdb-name: C    Scat. Types:   7   6 Mass=12.000000000 B-factor:1.000   
                 Charge=0.000000000          Polarization=0.000000000  [A^3] (considered a chargeless atom and no polarization)  Interactions: yes
                 Anisotropic factor:    0.000 [-] (Relative), Radius:    1.000 [A], Framework-atom:  no
Pseudo Atom[  23] Name Cu1      Oxidation:          Element: Cu   pdb-name: Cu   Scat. Types:  30  29 Mass=63.546039732 B-factor:0.000   
                 Charge=0.000000000  (-na-)  Polarization=6.200000000  [A^3] (considered a chargeless atom and no polarization)  Interactions: yes
                 Anisotropic factor:    0.000 [-] (Absolute), Radius:    1.220 [A], Framework-atom: yes (charge definition not found)
Pseudo Atom[  24] Name O1       Oxidation:          Element: O    pdb-name: O    Scat. Types:   9   8 Mass=15.999404927 B-factor:0.000   
                 Charge=0.000000000  (-na-)  Polarization=0.802000000  [A^3] (considered a chargeless atom and no polarization)  Interactions: yes
                 Anisotropic factor:    0.000 [-] (Absolute), Radius:    0.640 [A], Framework-atom: yes (charge definition not found)
Pseudo Atom[  25] Name C1       Oxidation:          Element: C    pdb-name: C    Scat. Types:   7   6 Mass=12.010735897 B-factor:0.000   
                 Charge=0.000000000  (-na-)  Polarization=1.760000000  [A^3] (considered a chargeless atom and no polarization)  Interactions: yes
                 Anisotropic factor:    0.000 [-] (Absolute), Radius:    0.750 [A], Framework-atom: yes (charge definition not found)
Pseudo Atom[  26] Name C2       Oxidation:          Element: C    pdb-name: C    Scat. Types:   7   6 Mass=12.010735897 B-factor:0.000   
                 Charge=0.000000000  (-na-)  Polarization=1.760000000  [A^3] (considered a chargeless atom and no polarization)  Interactions: yes
                 Anisotropic factor:    0.000 [-] (Absolute), Radius:    0.750 [A], Framework-atom: yes (charge definition not found)
Pseudo Atom[  27] Name C3       Oxidation:          Element: C    pdb-name: C    Scat. Types:   7   6 Mass=12.010735897 B-factor:0.000   
                 Charge=0.000000000  (-na-)  Polarization=1.760000000  [A^3] (considered a chargeless atom and no polarization)  Interactions: yes
                 Anisotropic factor:    0.000 [-] (Absolute), Radius:    0.750 [A], Framework-atom: yes (charge definition not found)
Pseudo Atom[  28] Name H1       Oxidation:          Element: H    pdb-name: H    Scat. Types:   1   1 Mass=1.007940754  B-factor:0.000   
                 Charge=0.000000000  (-na-)  Polarization=0.666793000  [A^3] (considered a chargeless atom and no polarization)  Interactions: yes
                 Anisotropic factor:    0.000 [-] (Absolute), Radius:    0.320 [A], Framework-atom: yes (charge definition not found)
Pseudo Atom[  29] Name Cu2      Oxidation:          Element: Cu   pdb-name: Cu   Scat. Types:  30  29 Mass=63.546039732 B-factor:0.000   
                 Charge=0.000000000  (-na-)  Polarization=6.200000000  [A^3] (considered a chargeless atom and no polarization)  Interactions: yes
                 Anisotropic factor:    0.000 [-] (Absolute), Radius:    1.220 [A], Framework-atom: yes (charge definition not found)
Pseudo Atom[  30] Name Cu3      Oxidation:          Element: Cu   pdb-name: Cu   Scat. Types:  30  29 Mass=63.546039732 B-factor:0.000   
                 Charge=0.000000000  (-na-)  Polarization=6.200000000  [A^3] (considered a chargeless atom and no polarization)  Interactions: yes
                 Anisotropic factor:    0.000 [-] (Absolute), Radius:    1.220 [A], Framework-atom: yes (charge definition not found)
Pseudo Atom[  31] Name Cu4      Oxidation:          Element: Cu   pdb-name: Cu   Scat. Types:  30  29 Mass=63.546039732 B-factor:0.000   
                 Charge=0.000000000  (-na-)  Polarization=6.200000000  [A^3] (considered a chargeless atom and no polarization)  Interactions: yes
                 Anisotropic factor:    0.000 [-] (Absolute), Radius:    1.220 [A], Framework-atom: yes (charge definition not found)
Pseudo Atom[  32] Name Cu5      Oxidation:          Element: Cu   pdb-name: Cu   Scat. Types:  30  29 Mass=63.546039732 B-factor:0.000   
                 Charge=0.000000000  (-na-)  Polarization=6.200000000  [A^3] (considered a chargeless atom and no polarization)  Interactions: yes
                 Anisotropic factor:    0.000 [-] (Absolute), Radius:    1.220 [A], Framework-atom: yes (charge definition not found)
Pseudo Atom[  33] Name Cu6      Oxidation:          Element: Cu   pdb-name: Cu   Scat. Types:  30  29 Mass=63.546039732 B-factor:0.000   
                 Charge=0.000000000  (-na-)  Polarization=6.200000000  [A^3] (considered a chargeless atom and no polarization)  Interactions: yes
                 Anisotropic factor:    0.000 [-] (Absolute), Radius:    1.220 [A], Framework-atom: yes (charge definition not found)
Pseudo Atom[  34] Name Cu7      Oxidation:          Element: Cu   pdb-name: Cu   Scat. Types:  30  29 Mass=63.546039732 B-factor:0.000   
                 Charge=0.000000000  (-na-)  Polarization=6.200000000  [A^3] (considered a chargeless atom and no polarization)  Interactions: yes
                 Anisotropic factor:    0.000 [-] (Absolute), Radius:    1.220 [A], Framework-atom: yes (charge definition not found)
Pseudo Atom[  35] Name Cu8      Oxidation:          Element: Cu   pdb-name: Cu   Scat. Types:  30  29 Mass=63.546039732 B-factor:0.000   
                 Charge=0.000000000  (-na-)  Polarization=6.200000000  [A^3] (considered a chargeless atom and no polarization)  Interactions: yes
                 Anisotropic factor:    0.000 [-] (Absolute), Radius:    1.220 [A], Framework-atom: yes (charge definition not found)
Pseudo Atom[  36] Name Cu9      Oxidation:          Element: Cu   pdb-name: Cu   Scat. Types:  30  29 Mass=63.546039732 B-factor:0.000   
                 Charge=0.000000000  (-na-)  Polarization=6.200000000  [A^3] (considered a chargeless atom and no polarization)  Interactions: yes
                 Anisotropic factor:    0.000 [-] (Absolute), Radius:    1.220 [A], Framework-atom: yes (charge definition not found)
Pseudo Atom[  37] Name Cu10     Oxidation:          Element: Cu   pdb-name: Cu   Scat. Types:  30  29 Mass=63.546039732 B-factor:0.000   
                 Charge=0.000000000  (-na-)  Polarization=6.200000000  [A^3] (considered a chargeless atom and no polarization)  Interactions: yes
                 Anisotropic factor:    0.000 [-] (Absolute), Radius:    1.220 [A], Framework-atom: yes (charge definition not found)
Pseudo Atom[  38] Name Cu11     Oxidation:          Element: Cu   pdb-name: Cu   Scat. Types:  30  29 Mass=63.546039732 B-factor:0.000   
                 Charge=0.000000000  (-na-)  Polarization=6.200000000  [A^3] (considered a chargeless atom and no polarization)  Interactions: yes
                 Anisotropic factor:    0.000 [-] (Absolute), Radius:    1.220 [A], Framework-atom: yes (charge definition not found)
Pseudo Atom[  39] Name Cu12     Oxidation:          Element: Cu   pdb-name: Cu   Scat. Types:  30  29 Mass=63.546039732 B-factor:0.000   
                 Charge=0.000000000  (-na-)  Polarization=6.200000000  [A^3] (considered a chargeless atom and no polarization)  Interactions: yes
                 Anisotropic factor:    0.000 [-] (Absolute), Radius:    1.220 [A], Framework-atom: yes (charge definition not found)
Pseudo Atom[  40] Name Cu13     Oxidation:          Element: Cu   pdb-name: Cu   Scat. Types:  30  29 Mass=63.546039732 B-factor:0.000   
                 Charge=0.000000000  (-na-)  Polarization=6.200000000  [A^3] (considered a chargeless atom and no polarization)  Interactions: yes
                 Anisotropic factor:    0.000 [-] (Absolute), Radius:    1.220 [A], Framework-atom: yes (charge definition not found)
Pseudo Atom[  41] Name Cu14     Oxidation:          Element: Cu   pdb-name: Cu   Scat. Types:  30  29 Mass=63.546039732 B-factor:0.000   
                 Charge=0.000000000  (-na-)  Polarization=6.200000000  [A^3] (considered a chargeless atom and no polarization)  Interactions: yes
                 Anisotropic factor:    0.000 [-] (Absolute), Radius:    1.220 [A], Framework-atom: yes (charge definition not found)
Pseudo Atom[  42] Name Cu15     Oxidation:          Element: Cu   pdb-name: Cu   Scat. Types:  30  29 Mass=63.546039732 B-factor:0.000   
                 Charge=0.000000000  (-na-)  Polarization=6.200000000  [A^3] (considered a chargeless atom and no polarization)  Interactions: yes
                 Anisotropic factor:    0.000 [-] (Absolute), Radius:    1.220 [A], Framework-atom: yes (charge definition not found)
Pseudo Atom[  43] Name Cu16     Oxidation:          Element: Cu   pdb-name: Cu   Scat. Types:  30  29 Mass=63.546039732 B-factor:0.000   
                 Charge=0.000000000  (-na-)  Polarization=6.200000000  [A^3] (considered a chargeless atom and no polarization)  Interactions: yes
                 Anisotropic factor:    0.000 [-] (Absolute), Radius:    1.220 [A], Framework-atom: yes (charge definition not found)
Pseudo Atom[  44] Name Cu17     Oxidation:          Element: Cu   pdb-name: Cu   Scat. Types:  30  29 Mass=63.546039732 B-factor:0.000   
                 Charge=0.000000000  (-na-)  Polarization=6.200000000  [A^3] (considered a chargeless atom and no polarization)  Interactions: yes
                 Anisotropic factor:    0.000 [-] (Absolute), Radius:    1.220 [A], Framework-atom: yes (charge definition not found)
Pseudo Atom[  45] Name Cu18     Oxidation:          Element: Cu   pdb-name: Cu   Scat. Types:  30  29 Mass=63.546039732 B-factor:0.000   
                 Charge=0.000000000  (-na-)  Polarization=6.200000000  [A^3] (considered a chargeless atom and no polarization)  Interactions: yes
                 Anisotropic factor:    0.000 [-] (Absolute), Radius:    1.220 [A], Framework-atom: yes (charge definition not found)
Pseudo Atom[  46] Name O2       Oxidation:          Element: O    pdb-name: O    Scat. Types:   9   8 Mass=15.999404927 B-factor:0.000   
                 Charge=0.000000000  (-na-)  Polarization=0.802000000  [A^3] (considered a chargeless atom and no polarization)  Interactions: yes
                 Anisotropic factor:    0.000 [-] (Absolute), Radius:    0.640 [A], Framework-atom: yes (charge definition not found)
Pseudo Atom[  47] Name O3       Oxidation:          Element: O    pdb-name: O    Scat. Types:   9   8 Mass=15.999404927 B-factor:0.000   
                 Charge=0.000000000  (-na-)  Polarization=0.802000000  [A^3] (considered a chargeless atom and no polarization)  Interactions: yes
                 Anisotropic factor:    0.000 [-] (Absolute), Radius:    0.640 [A], Framework-atom: yes (charge definition not found)
Pseudo Atom[  48] Name O4       Oxidation:          Element: O    pdb-name: O    Scat. Types:   9   8 Mass=15.999404927 B-factor:0.000   
                 Charge=0.000000000  (-na-)  Polarization=0.802000000  [A^3] (considered a chargeless atom and no polarization)  Interactions: yes
                 Anisotropic factor:    0.000 [-] (Absolute), Radius:    0.640 [A], Framework-atom: yes (charge definition not found)
Pseudo Atom[  49] Name O5       Oxidation:          Element: O    pdb-name: O    Scat. Types:   9   8 Mass=15.999404927 B-factor:0.000   
                 Charge=0.000000000  (-na-)  Polarization=0.802000000  [A^3] (considered a chargeless atom and no polarization)  Interactions: yes
                 Anisotropic factor:    0.000 [-] (Absolute), Radius:    0.640 [A], Framework-atom: yes (charge definition not found)
Pseudo Atom[  50] Name O6       Oxidation:          Element: O    pdb-name: O    Scat. Types:   9   8 Mass=15.999404927 B-factor:0.000   
                 Charge=0.000000000  (-na-)  Polarization=0.802000000  [A^3] (considered a chargeless atom and no polarization)  Interactions: yes
                 Anisotropic factor:    0.000 [-] (Absolute), Radius:    0.640 [A], Framework-atom: yes (charge definition not found)
Pseudo Atom[  51] Name O7       Oxidation:          Element: O    pdb-name: O    Scat. Types:   9   8 Mass=15.999404927 B-factor:0.000   
                 Charge=0.000000000  (-na-)  Polarization=0.802000000  [A^3] (considered a chargeless atom and no polarization)  Interactions: yes
                 Anisotropic factor:    0.000 [-] (Absolute), Radius:    0.640 [A], Framework-atom: yes (charge definition not found)
Pseudo Atom[  52] Name O8       Oxidation:          Element: O    pdb-name: O    Scat. Types:   9   8 Mass=15.999404927 B-factor:0.000   
                 Charge=0.000000000  (-na-)  Polarization=0.802000000  [A^3] (considered a chargeless atom and no polarization)  Interactions: yes
                 Anisotropic factor:    0.000 [-] (Absolute), Radius:    0.640 [A], Framework-atom: yes (charge definition not found)
Pseudo Atom[  53] Name O9       Oxidation:          Element: O    pdb-name: O    Scat. Types:   9   8 Mass=15.999404927 B-factor:0.000   
                 Charge=0.000000000  (-na-)  Polarization=0.802000000  [A^3] (considered a chargeless atom and no polarization)  Interactions: yes
                 Anisotropic factor:    0.000 [-] (Absolute), Radius:    0.640 [A], Framework-atom: yes (charge definition not found)
Pseudo Atom[  54] Name O10      Oxidation:          Element: O    pdb-name: O    Scat. Types:   9   8 Mass=15.999404927 B-factor:0.000   
                 Charge=0.000000000  (-na-)  Polarization=0.802000000  [A^3] (considered a chargeless atom and no polarization)  Interactions: yes
                 Anisotropic factor:    0.000 [-] (Absolute), Radius:    0.640 [A], Framework-atom: yes (charge definition not found)
Pseudo Atom[  55] Name O11      Oxidation:          Element: O    pdb-name: O    Scat. Types:   9   8 Mass=15.999404927 B-factor:0.000   
                 Charge=0.000000000  (-na-)  Polarization=0.802000000  [A^3] (considered a chargeless atom and no polarization)  Interactions: yes
                 Anisotropic factor:    0.000 [-] (Absolute), Radius:    0.640 [A], Framework-atom: yes (charge definition not found)
Pseudo Atom[  56] Name O12      Oxidation:          Element: O    pdb-name: O    Scat. Types:   9   8 Mass=15.999404927 B-factor:0.000   
                 Charge=0.000000000  (-na-)  Polarization=0.802000000  [A^3] (considered a chargeless atom and no polarization)  Interactions: yes
                 Anisotropic factor:    0.000 [-] (Absolute), Radius:    0.640 [A], Framework-atom: yes (charge definition not found)
Pseudo Atom[  57] Name O13      Oxidation:          Element: O    pdb-name: O    Scat. Types:   9   8 Mass=15.999404927 B-factor:0.000   
                 Charge=0.000000000  (-na-)  Polarization=0.802000000  [A^3] (considered a chargeless atom and no polarization)  Interactions: yes
                 Anisotropic factor:    0.000 [-] (Absolute), Radius:    0.640 [A], Framework-atom: yes (charge definition not found)
Pseudo Atom[  58] Name O14      Oxidation:          Element: O    pdb-name: O    Scat. Types:   9   8 Mass=15.999404927 B-factor:0.000   
                 Charge=0.000000000  (-na-)  Polarization=0.802000000  [A^3] (considered a chargeless atom and no polarization)  Interactions: yes
                 Anisotropic factor:    0.000 [-] (Absolute), Radius:    0.640 [A], Framework-atom: yes (charge definition not found)
Pseudo Atom[  59] Name O15      Oxidation:          Element: O    pdb-name: O    Scat. Types:   9   8 Mass=15.999404927 B-factor:0.000   
                 Charge=0.000000000  (-na-)  Polarization=0.802000000  [A^3] (considered a chargeless atom and no polarization)  Interactions: yes
                 Anisotropic factor:    0.000 [-] (Absolute), Radius:    0.640 [A], Framework-atom: yes (charge definition not found)
Pseudo Atom[  60] Name O16      Oxidation:          Element: O    pdb-name: O    Scat. Types:   9   8 Mass=15.999404927 B-factor:0.000   
                 Charge=0.000000000  (-na-)  Polarization=0.802000000  [A^3] (considered a chargeless atom and no polarization)  Interactions: yes
                 Anisotropic factor:    0.000 [-] (Absolute), Radius:    0.640 [A], Framework-atom: yes (charge definition not found)
Pseudo Atom[  61] Name O17      Oxidation:          Element: O    pdb-name: O    Scat. Types:   9   8 Mass=15.999404927 B-factor:0.000   
                 Charge=0.000000000  (-na-)  Polarization=0.802000000  [A^3] (considered a chargeless atom and no polarization)  Interactions: yes
                 Anisotropic factor:    0.000 [-] (Absolute), Radius:    0.640 [A], Framework-atom: yes (charge definition not found)
Pseudo Atom[  62] Name O18      Oxidation:          Element: O    pdb-name: O    Scat. Types:   9   8 Mass=15.999404927 B-factor:0.000   
                 Charge=0.000000000  (-na-)  Polarization=0.802000000  [A^3] (considered a chargeless atom and no polarization)  Interactions: yes
                 Anisotropic factor:    0.000 [-] (Absolute), Radius:    0.640 [A], Framework-atom: yes (charge definition not found)
Pseudo Atom[  63] Name O19      Oxidation:          Element: O    pdb-name: O    Scat. Types:   9   8 Mass=15.999404927 B-factor:0.000   
                 Charge=0.000000000  (-na-)  Polarization=0.802000000  [A^3] (considered a chargeless atom and no polarization)  Interactions: yes
                 Anisotropic factor:    0.000 [-] (Absolute), Radius:    0.640 [A], Framework-atom: yes (charge definition not found)
Pseudo Atom[  64] Name O20      Oxidation:          Element: O    pdb-name: O    Scat. Types:   9   8 Mass=15.999404927 B-factor:0.000   
                 Charge=0.000000000  (-na-)  Polarization=0.802000000  [A^3] (considered a chargeless atom and no polarization)  Interactions: yes
                 Anisotropic factor:    0.000 [-] (Absolute), Radius:    0.640 [A], Framework-atom: yes (charge definition not found)
Pseudo Atom[  65] Name O21      Oxidation:          Element: O    pdb-name: O    Scat. Types:   9   8 Mass=15.999404927 B-factor:0.000   
                 Charge=0.000000000  (-na-)  Polarization=0.802000000  [A^3] (considered a chargeless atom and no polarization)  Interactions: yes
                 Anisotropic factor:    0.000 [-] (Absolute), Radius:    0.640 [A], Framework-atom: yes (charge definition not found)
Pseudo Atom[  66] Name O22      Oxidation:          Element: O    pdb-name: O    Scat. Types:   9   8 Mass=15.999404927 B-factor:0.000   
                 Charge=0.000000000  (-na-)  Polarization=0.802000000  [A^3] (considered a chargeless atom and no polarization)  Interactions: yes
                 Anisotropic factor:    0.000 [-] (Absolute), Radius:    0.640 [A], Framework-atom: yes (charge definition not found)
Pseudo Atom[  67] Name O23      Oxidation:          Element: O    pdb-name: O    Scat. Types:   9   8 Mass=15.999404927 B-factor:0.000   
                 Charge=0.000000000  (-na-)  Polarization=0.802000000  [A^3] (considered a chargeless atom and no polarization)  Interactions: yes
                 Anisotropic factor:    0.000 [-] (Absolute), Radius:    0.640 [A], Framework-atom: yes (charge definition not found)
Pseudo Atom[  68] Name O24      Oxidation:          Element: O    pdb-name: O    Scat. Types:   9   8 Mass=15.999404927 B-factor:0.000   
                 Charge=0.000000000  (-na-)  Polarization=0.802000000  [A^3] (considered a chargeless atom and no polarization)  Interactions: yes
                 Anisotropic factor:    0.000 [-] (Absolute), Radius:    0.640 [A], Framework-atom: yes (charge definition not found)
Pseudo Atom[  69] Name O25      Oxidation:          Element: O    pdb-name: O    Scat. Types:   9   8 Mass=15.999404927 B-factor:0.000   
                 Charge=0.000000000  (-na-)  Polarization=0.802000000  [A^3] (considered a chargeless atom and no polarization)  Interactions: yes
                 Anisotropic factor:    0.000 [-] (Absolute), Radius:    0.640 [A], Framework-atom: yes (charge definition not found)
Pseudo Atom[  70] Name O26      Oxidation:          Element: O    pdb-name: O    Scat. Types:   9   8 Mass=15.999404927 B-factor:0.000   
                 Charge=0.000000000  (-na-)  Polarization=0.802000000  [A^3] (considered a chargeless atom and no polarization)  Interactions: yes
                 Anisotropic factor:    0.000 [-] (Absolute), Radius:    0.640 [A], Framework-atom: yes (charge definition not found)
Pseudo Atom[  71] Name O27      Oxidation:          Element: O    pdb-name: O    Scat. Types:   9   8 Mass=15.999404927 B-factor:0.000   
                 Charge=0.000000000  (-na-)  Polarization=0.802000000  [A^3] (considered a chargeless atom and no polarization)  Interactions: yes
                 Anisotropic factor:    0.000 [-] (Absolute), Radius:    0.640 [A], Framework-atom: yes (charge definition not found)
Pseudo Atom[  72] Name O28      Oxidation:          Element: O    pdb-name: O    Scat. Types:   9   8 Mass=15.999404927 B-factor:0.000   
                 Charge=0.000000000  (-na-)  Polarization=0.802000000  [A^3] (considered a chargeless atom and no polarization)  Interactions: yes
                 Anisotropic factor:    0.000 [-] (Absolute), Radius:    0.640 [A], Framework-atom: yes (charge definition not found)
Pseudo Atom[  73] Name O29      Oxidation:          Element: O    pdb-name: O    Scat. Types:   9   8 Mass=15.999404927 B-factor:0.000   
                 Charge=0.000000000  (-na-)  Polarization=0.802000000  [A^3] (considered a chargeless atom and no polarization)  Interactions: yes
                 Anisotropic factor:    0.000 [-] (Absolute), Radius:    0.640 [A], Framework-atom: yes (charge definition not found)
Pseudo Atom[  74] Name O30      Oxidation:          Element: O    pdb-name: O    Scat. Types:   9   8 Mass=15.999404927 B-factor:0.000   
                 Charge=0.000000000  (-na-)  Polarization=0.802000000  [A^3] (considered a chargeless atom and no polarization)  Interactions: yes
                 Anisotropic factor:    0.000 [-] (Absolute), Radius:    0.640 [A], Framework-atom: yes (charge definition not found)
Pseudo Atom[  75] Name O31      Oxidation:          Element: O    pdb-name: O    Scat. Types:   9   8 Mass=15.999404927 B-factor:0.000   
                 Charge=0.000000000  (-na-)  Polarization=0.802000000  [A^3] (considered a chargeless atom and no polarization)  Interactions: yes
                 Anisotropic factor:    0.000 [-] (Absolute), Radius:    0.640 [A], Framework-atom: yes (charge definition not found)
Pseudo Atom[  76] Name O32      Oxidation:          Element: O    pdb-name: O    Scat. Types:   9   8 Mass=15.999404927 B-factor:0.000   
                 Charge=0.000000000  (-na-)  Polarization=0.802000000  [A^3] (considered a chargeless atom and no polarization)  Interactions: yes
                 Anisotropic factor:    0.000 [-] (Absolute), Radius:    0.640 [A], Framework-atom: yes (charge definition not found)
Pseudo Atom[  77] Name O33      Oxidation:          Element: O    pdb-name: O    Scat. Types:   9   8 Mass=15.999404927 B-factor:0.000   
                 Charge=0.000000000  (-na-)  Polarization=0.802000000  [A^3] (considered a chargeless atom and no polarization)  Interactions: yes
                 Anisotropic factor:    0.000 [-] (Absolute), Radius:    0.640 [A], Framework-atom: yes (charge definition not found)
Pseudo Atom[  78] Name O34      Oxidation:          Element: O    pdb-name: O    Scat. Types:   9   8 Mass=15.999404927 B-factor:0.000   
                 Charge=0.000000000  (-na-)  Polarization=0.802000000  [A^3] (considered a chargeless atom and no polarization)  Interactions: yes
                 Anisotropic factor:    0.000 [-] (Absolute), Radius:    0.640 [A], Framework-atom: yes (charge definition not found)
Pseudo Atom[  79] Name O35      Oxidation:          Element: O    pdb-name: O    Scat. Types:   9   8 Mass=15.999404927 B-factor:0.000   
                 Charge=0.000000000  (-na-)  Polarization=0.802000000  [A^3] (considered a chargeless atom and no polarization)  Interactions: yes
                 Anisotropic factor:    0.000 [-] (Absolute), Radius:    0.640 [A], Framework-atom: yes (charge definition not found)
Pseudo Atom[  80] Name O36      Oxidation:          Element: O    pdb-name: O    Scat. Types:   9   8 Mass=15.999404927 B-factor:0.000   
                 Charge=0.000000000  (-na-)  Polarization=0.802000000  [A^3] (considered a chargeless atom and no polarization)  Interactions: yes
                 Anisotropic factor:    0.000 [-] (Absolute), Radius:    0.640 [A], Framework-atom: yes (charge definition not found)
Pseudo Atom[  81] Name C4       Oxidation:          Element: C    pdb-name: C    Scat. Types:   7   6 Mass=12.010735897 B-factor:0.000   
                 Charge=0.000000000  (-na-)  Polarization=1.760000000  [A^3] (considered a chargeless atom and no polarization)  Interactions: yes
                 Anisotropic factor:    0.000 [-] (Absolute), Radius:    0.750 [A], Framework-atom: yes (charge definition not found)
Pseudo Atom[  82] Name C5       Oxidation:          Element: C    pdb-name: C    Scat. Types:   7   6 Mass=12.010735897 B-factor:0.000   
                 Charge=0.000000000  (-na-)  Polarization=1.760000000  [A^3] (considered a chargeless atom and no polarization)  Interactions: yes
                 Anisotropic factor:    0.000 [-] (Absolute), Radius:    0.750 [A], Framework-atom: yes (charge definition not found)
Pseudo Atom[  83] Name C6       Oxidation:          Element: C    pdb-name: C    Scat. Types:   7   6 Mass=12.010735897 B-factor:0.000   
                 Charge=0.000000000  (-na-)  Polarization=1.760000000  [A^3] (considered a chargeless atom and no polarization)  Interactions: yes
                 Anisotropic factor:    0.000 [-] (Absolute), Radius:    0.750 [A], Framework-atom: yes (charge definition not found)
Pseudo Atom[  84] Name C7       Oxidation:          Element: C    pdb-name: C    Scat. Types:   7   6 Mass=12.010735897 B-factor:0.000   
                 Charge=0.000000000  (-na-)  Polarization=1.760000000  [A^3] (considered a chargeless atom and no polarization)  Interactions: yes
                 Anisotropic factor:    0.000 [-] (Absolute), Radius:    0.750 [A], Framework-atom: yes (charge definition not found)
Pseudo Atom[  85] Name C8       Oxidation:          Element: C    pdb-name: C    Scat. Types:   7   6 Mass=12.010735897 B-factor:0.000   
                 Charge=0.000000000  (-na-)  Polarization=1.760000000  [A^3] (considered a chargeless atom and no polarization)  Interactions: yes
                 Anisotropic factor:    0.000 [-] (Absolute), Radius:    0.750 [A], Framework-atom: yes (charge definition not found)
Pseudo Atom[  86] Name C9       Oxidation:          Element: C    pdb-name: C    Scat. Types:   7   6 Mass=12.010735897 B-factor:0.000   
                 Charge=0.000000000  (-na-)  Polarization=1.760000000  [A^3] (considered a chargeless atom and no polarization)  Interactions: yes
                 Anisotropic factor:    0.000 [-] (Absolute), Radius:    0.750 [A], Framework-atom: yes (charge definition not found)
Pseudo Atom[  87] Name C10      Oxidation:          Element: C    pdb-name: C    Scat. Types:   7   6 Mass=12.010735897 B-factor:0.000   
                 Charge=0.000000000  (-na-)  Polarization=1.760000000  [A^3] (considered a chargeless atom and no polarization)  Interactions: yes
                 Anisotropic factor:    0.000 [-] (Absolute), Radius:    0.750 [A], Framework-atom: yes (charge definition not found)
Pseudo Atom[  88] Name C11      Oxidation:          Element: C    pdb-name: C    Scat. Types:   7   6 Mass=12.010735897 B-factor:0.000   
                 Charge=0.000000000  (-na-)  Polarization=1.760000000  [A^3] (considered a chargeless atom and no polarization)  Interactions: yes
                 Anisotropic factor:    0.000 [-] (Absolute), Radius:    0.750 [A], Framework-atom: yes (charge definition not found)
Pseudo Atom[  89] Name C12      Oxidation:          Element: C    pdb-name: C    Scat. Types:   7   6 Mass=12.010735897 B-factor:0.000   
                 Charge=0.000000000  (-na-)  Polarization=1.760000000  [A^3] (considered a chargeless atom and no polarization)  Interactions: yes
                 Anisotropic factor:    0.000 [-] (Absolute), Radius:    0.750 [A], Framework-atom: yes (charge definition not found)
Pseudo Atom[  90] Name C13      Oxidation:          Element: C    pdb-name: C    Scat. Types:   7   6 Mass=12.010735897 B-factor:0.000   
                 Charge=0.000000000  (-na-)  Polarization=1.760000000  [A^3] (considered a chargeless atom and no polarization)  Interactions: yes
                 Anisotropic factor:    0.000 [-] (Absolute), Radius:    0.750 [A], Framework-atom: yes (charge definition not found)
Pseudo Atom[  91] Name C14      Oxidation:          Element: C    pdb-name: C    Scat. Types:   7   6 Mass=12.010735897 B-factor:0.000   
                 Charge=0.000000000  (-na-)  Polarization=1.760000000  [A^3] (considered a chargeless atom and no polarization)  Interactions: yes
                 Anisotropic factor:    0.000 [-] (Absolute), Radius:    0.750 [A], Framework-atom: yes (charge definition not found)
Pseudo Atom[  92] Name C15      Oxidation:          Element: C    pdb-name: C    Scat. Types:   7   6 Mass=12.010735897 B-factor:0.000   
                 Charge=0.000000000  (-na-)  Polarization=1.760000000  [A^3] (considered a chargeless atom and no polarization)  Interactions: yes
                 Anisotropic factor:    0.000 [-] (Absolute), Radius:    0.750 [A], Framework-atom: yes (charge definition not found)
Pseudo Atom[  93] Name C16      Oxidation:          Element: C    pdb-name: C    Scat. Types:   7   6 Mass=12.010735897 B-factor:0.000   
                 Charge=0.000000000  (-na-)  Polarization=1.760000000  [A^3] (considered a chargeless atom and no polarization)  Interactions: yes
                 Anisotropic factor:    0.000 [-] (Absolute), Radius:    0.750 [A], Framework-atom: yes (charge definition not found)
Pseudo Atom[  94] Name C17      Oxidation:          Element: C    pdb-name: C    Scat. Types:   7   6 Mass=12.010735897 B-factor:0.000   
                 Charge=0.000000000  (-na-)  Polarization=1.760000000  [A^3] (considered a chargeless atom and no polarization)  Interactions: yes
                 Anisotropic factor:    0.000 [-] (Absolute), Radius:    0.750 [A], Framework-atom: yes (charge definition not found)
Pseudo Atom[  95] Name C18      Oxidation:          Element: C    pdb-name: C    Scat. Types:   7   6 Mass=12.010735897 B-factor:0.000   
                 Charge=0.000000000  (-na-)  Polarization=1.760000000  [A^3] (considered a chargeless atom and no polarization)  Interactions: yes
                 Anisotropic factor:    0.000 [-] (Absolute), Radius:    0.750 [A], Framework-atom: yes (charge definition not found)
Pseudo Atom[  96] Name C19      Oxidation:          Element: C    pdb-name: C    Scat. Types:   7   6 Mass=12.010735897 B-factor:0.000   
                 Charge=0.000000000  (-na-)  Polarization=1.760000000  [A^3] (considered a chargeless atom and no polarization)  Interactions: yes
                 Anisotropic factor:    0.000 [-] (Absolute), Radius:    0.750 [A], Framework-atom: yes (charge definition not found)
Pseudo Atom[  97] Name C20      Oxidation:          Element: C    pdb-name: C    Scat. Types:   7   6 Mass=12.010735897 B-factor:0.000   
                 Charge=0.000000000  (-na-)  Polarization=1.760000000  [A^3] (considered a chargeless atom and no polarization)  Interactions: yes
                 Anisotropic factor:    0.000 [-] (Absolute), Radius:    0.750 [A], Framework-atom: yes (charge definition not found)
Pseudo Atom[  98] Name C21      Oxidation:          Element: C    pdb-name: C    Scat. Types:   7   6 Mass=12.010735897 B-factor:0.000   
                 Charge=0.000000000  (-na-)  Polarization=1.760000000  [A^3] (considered a chargeless atom and no polarization)  Interactions: yes
                 Anisotropic factor:    0.000 [-] (Absolute), Radius:    0.750 [A], Framework-atom: yes (charge definition not found)
Pseudo Atom[  99] Name C22      Oxidation:          Element: C    pdb-name: C    Scat. Types:   7   6 Mass=12.010735897 B-factor:0.000   
                 Charge=0.000000000  (-na-)  Polarization=1.760000000  [A^3] (considered a chargeless atom and no polarization)  Interactions: yes
                 Anisotropic factor:    0.000 [-] (Absolute), Radius:    0.750 [A], Framework-atom: yes (charge definition not found)
Pseudo Atom[ 100] Name C23      Oxidation:          Element: C    pdb-name: C    Scat. Types:   7   6 Mass=12.010735897 B-factor:0.000   
                 Charge=0.000000000  (-na-)  Polarization=1.760000000  [A^3] (considered a chargeless atom and no polarization)  Interactions: yes
                 Anisotropic factor:    0.000 [-] (Absolute), Radius:    0.750 [A], Framework-atom: yes (charge definition not found)
Pseudo Atom[ 101] Name C24      Oxidation:          Element: C    pdb-name: C    Scat. Types:   7   6 Mass=12.010735897 B-factor:0.000   
                 Charge=0.000000000  (-na-)  Polarization=1.760000000  [A^3] (considered a chargeless atom and no polarization)  Interactions: yes
                 Anisotropic factor:    0.000 [-] (Absolute), Radius:    0.750 [A], Framework-atom: yes (charge definition not found)
Pseudo Atom[ 102] Name C25      Oxidation:          Element: C    pdb-name: C    Scat. Types:   7   6 Mass=12.010735897 B-factor:0.000   
                 Charge=0.000000000  (-na-)  Polarization=1.760000000  [A^3] (considered a chargeless atom and no polarization)  Interactions: yes
                 Anisotropic factor:    0.000 [-] (Absolute), Radius:    0.750 [A], Framework-atom: yes (charge definition not found)
Pseudo Atom[ 103] Name C26      Oxidation:          Element: C    pdb-name: C    Scat. Types:   7   6 Mass=12.010735897 B-factor:0.000   
                 Charge=0.000000000  (-na-)  Polarization=1.760000000  [A^3] (considered a chargeless atom and no polarization)  Interactions: yes
                 Anisotropic factor:    0.000 [-] (Absolute), Radius:    0.750 [A], Framework-atom: yes (charge definition not found)
Pseudo Atom[ 104] Name C27      Oxidation:          Element: C    pdb-name: C    Scat. Types:   7   6 Mass=12.010735897 B-factor:0.000   
                 Charge=0.000000000  (-na-)  Polarization=1.760000000  [A^3] (considered a chargeless atom and no polarization)  Interactions: yes
                 Anisotropic factor:    0.000 [-] (Absolute), Radius:    0.750 [A], Framework-atom: yes (charge definition not found)
Pseudo Atom[ 105] Name C28      Oxidation:          Element: C    pdb-name: C    Scat. Types:   7   6 Mass=12.010735897 B-factor:0.000   
                 Charge=0.000000000  (-na-)  Polarization=1.760000000  [A^3] (considered a chargeless atom and no polarization)  Interactions: yes
                 Anisotropic factor:    0.000 [-] (Absolute), Radius:    0.750 [A], Framework-atom: yes (charge definition not found)
Pseudo Atom[ 106] Name C29      Oxidation:          Element: C    pdb-name: C    Scat. Types:   7   6 Mass=12.010735897 B-factor:0.000   
                 Charge=0.000000000  (-na-)  Polarization=1.760000000  [A^3] (considered a chargeless atom and no polarization)  Interactions: yes
                 Anisotropic factor:    0.000 [-] (Absolute), Radius:    0.750 [A], Framework-atom: yes (charge definition not found)
Pseudo Atom[ 107] Name C30      Oxidation:          Element: C    pdb-name: C    Scat. Types:   7   6 Mass=12.010735897 B-factor:0.000   
                 Charge=0.000000000  (-na-)  Polarization=1.760000000  [A^3] (considered a chargeless atom and no polarization)  Interactions: yes
                 Anisotropic factor:    0.000 [-] (Absolute), Radius:    0.750 [A], Framework-atom: yes (charge definition not found)
Pseudo Atom[ 108] Name C31      Oxidation:          Element: C    pdb-name: C    Scat. Types:   7   6 Mass=12.010735897 B-factor:0.000   
                 Charge=0.000000000  (-na-)  Polarization=1.760000000  [A^3] (considered a chargeless atom and no polarization)  Interactions: yes
                 Anisotropic factor:    0.000 [-] (Absolute), Radius:    0.750 [A], Framework-atom: yes (charge definition not found)
Pseudo Atom[ 109] Name C32      Oxidation:          Element: C    pdb-name: C    Scat. Types:   7   6 Mass=12.010735897 B-factor:0.000   
                 Charge=0.000000000  (-na-)  Polarization=1.760000000  [A^3] (considered a chargeless atom and no polarization)  Interactions: yes
                 Anisotropic factor:    0.000 [-] (Absolute), Radius:    0.750 [A], Framework-atom: yes (charge definition not found)
Pseudo Atom[ 110] Name C33      Oxidation:          Element: C    pdb-name: C    Scat. Types:   7   6 Mass=12.010735897 B-factor:0.000   
                 Charge=0.000000000  (-na-)  Polarization=1.760000000  [A^3] (considered a chargeless atom and no polarization)  Interactions: yes
                 Anisotropic factor:    0.000 [-] (Absolute), Radius:    0.750 [A], Framework-atom: yes (charge definition not found)
Pseudo Atom[ 111] Name C34      Oxidation:          Element: C    pdb-name: C    Scat. Types:   7   6 Mass=12.010735897 B-factor:0.000   
                 Charge=0.000000000  (-na-)  Polarization=1.760000000  [A^3] (considered a chargeless atom and no polarization)  Interactions: yes
                 Anisotropic factor:    0.000 [-] (Absolute), Radius:    0.750 [A], Framework-atom: yes (charge definition not found)
Pseudo Atom[ 112] Name C35      Oxidation:          Element: C    pdb-name: C    Scat. Types:   7   6 Mass=12.010735897 B-factor:0.000   
                 Charge=0.000000000  (-na-)  Polarization=1.760000000  [A^3] (considered a chargeless atom and no polarization)  Interactions: yes
                 Anisotropic factor:    0.000 [-] (Absolute), Radius:    0.750 [A], Framework-atom: yes (charge definition not found)
Pseudo Atom[ 113] Name C36      Oxidation:          Element: C    pdb-name: C    Scat. Types:   7   6 Mass=12.010735897 B-factor:0.000   
                 Charge=0.000000000  (-na-)  Polarization=1.760000000  [A^3] (considered a chargeless atom and no polarization)  Interactions: yes
                 Anisotropic factor:    0.000 [-] (Absolute), Radius:    0.750 [A], Framework-atom: yes (charge definition not found)
Pseudo Atom[ 114] Name H2       Oxidation:          Element: H    pdb-name: H    Scat. Types:   1   1 Mass=1.007940754  B-factor:0.000   
                 Charge=0.000000000  (-na-)  Polarization=0.666793000  [A^3] (considered a chargeless atom and no polarization)  Interactions: yes
                 Anisotropic factor:    0.000 [-] (Absolute), Radius:    0.320 [A], Framework-atom: yes (charge definition not found)
Pseudo Atom[ 115] Name H3       Oxidation:          Element: H    pdb-name: H    Scat. Types:   1   1 Mass=1.007940754  B-factor:0.000   
                 Charge=0.000000000  (-na-)  Polarization=0.666793000  [A^3] (considered a chargeless atom and no polarization)  Interactions: yes
                 Anisotropic factor:    0.000 [-] (Absolute), Radius:    0.320 [A], Framework-atom: yes (charge definition not found)
Pseudo Atom[ 116] Name H4       Oxidation:          Element: H    pdb-name: H    Scat. Types:   1   1 Mass=1.007940754  B-factor:0.000   
                 Charge=0.000000000  (-na-)  Polarization=0.666793000  [A^3] (considered a chargeless atom and no polarization)  Interactions: yes
                 Anisotropic factor:    0.000 [-] (Absolute), Radius:    0.320 [A], Framework-atom: yes (charge definition not found)
Pseudo Atom[ 117] Name H5       Oxidation:          Element: H    pdb-name: H    Scat. Types:   1   1 Mass=1.007940754  B-factor:0.000   
                 Charge=0.000000000  (-na-)  Polarization=0.666793000  [A^3] (considered a chargeless atom and no polarization)  Interactions: yes
                 Anisotropic factor:    0.000 [-] (Absolute), Radius:    0.320 [A], Framework-atom: yes (charge definition not found)
Pseudo Atom[ 118] Name H6       Oxidation:          Element: H    pdb-name: H    Scat. Types:   1   1 Mass=1.007940754  B-factor:0.000   
                 Charge=0.000000000  (-na-)  Polarization=0.666793000  [A^3] (considered a chargeless atom and no polarization)  Interactions: yes
                 Anisotropic factor:    0.000 [-] (Absolute), Radius:    0.320 [A], Framework-atom: yes (charge definition not found)
Pseudo Atom[ 119] Name H7       Oxidation:          Element: H    pdb-name: H    Scat. Types:   1   1 Mass=1.007940754  B-factor:0.000   
                 Charge=0.000000000  (-na-)  Polarization=0.666793000  [A^3] (considered a chargeless atom and no polarization)  Interactions: yes
                 Anisotropic factor:    0.000 [-] (Absolute), Radius:    0.320 [A], Framework-atom: yes (charge definition not found)
Pseudo Atom[ 120] Name H8       Oxidation:          Element: H    pdb-name: H    Scat. Types:   1   1 Mass=1.007940754  B-factor:0.000   
                 Charge=0.000000000  (-na-)  Polarization=0.666793000  [A^3] (considered a chargeless atom and no polarization)  Interactions: yes
                 Anisotropic factor:    0.000 [-] (Absolute), Radius:    0.320 [A], Framework-atom: yes (charge definition not found)
Pseudo Atom[ 121] Name H9       Oxidation:          Element: H    pdb-name: H    Scat. Types:   1   1 Mass=1.007940754  B-factor:0.000   
                 Charge=0.000000000  (-na-)  Polarization=0.666793000  [A^3] (considered a chargeless atom and no polarization)  Interactions: yes
                 Anisotropic factor:    0.000 [-] (Absolute), Radius:    0.320 [A], Framework-atom: yes (charge definition not found)
Pseudo Atom[ 122] Name H10      Oxidation:          Element: H    pdb-name: H    Scat. Types:   1   1 Mass=1.007940754  B-factor:0.000   
                 Charge=0.000000000  (-na-)  Polarization=0.666793000  [A^3] (considered a chargeless atom and no polarization)  Interactions: yes
                 Anisotropic factor:    0.000 [-] (Absolute), Radius:    0.320 [A], Framework-atom: yes (charge definition not found)
Pseudo Atom[ 123] Name H11      Oxidation:          Element: H    pdb-name: H    Scat. Types:   1   1 Mass=1.007940754  B-factor:0.000   
                 Charge=0.000000000  (-na-)  Polarization=0.666793000  [A^3] (considered a chargeless atom and no polarization)  Interactions: yes
                 Anisotropic factor:    0.000 [-] (Absolute), Radius:    0.320 [A], Framework-atom: yes (charge definition not found)
Pseudo Atom[ 124] Name H12      Oxidation:          Element: H    pdb-name: H    Scat. Types:   1   1 Mass=1.007940754  B-factor:0.000   
                 Charge=0.000000000  (-na-)  Polarization=0.666793000  [A^3] (considered a chargeless atom and no polarization)  Interactions: yes
                 Anisotropic factor:    0.000 [-] (Absolute), Radius:    0.320 [A], Framework-atom: yes (charge definition not found)


Forcefield: UFF
===========================================================================
Minimal distance: 1
CutOff VDW : 12.000000 (144.000000)
CutOff VDW switching on: 10.800000 (116.640000)
CutOff charge-charge : 12.000000 (144.000000)
CutOff charge-charge switching on: 7.800000 (60.840000)
CutOff charge-bonddipole : 12.000000 (144.000000)
CutOff charge-bondipole switching on: 8.400000 (70.560000)
CutOff bonddipole-bonddipole : 12.000000 (144.000000)
CutOff bonddipole-bondipole switching on: 9.000000 (81.000000)
Polarization is neglected
All potentials are unshifted !!!!!!

General mixing rule: Lorentz-Berthelot mixing rules are used FIRST for cross terms
0 cross terms are overwritten using the individual mixing rules from the file 'force_field_mixing_rules.def'
and then 0 terms are overwritten using the specific interactions from the file 'force_field.def'

The force field and all the interactions:
     Ar -      Ar [LENNARD_JONES] p_0/k_B: 119.80000 [K], p_1: 3.40000 [A], shift/k_B:   0.00000000 [K], tailcorrection: no
     Ar -      He [LENNARD_JONES] p_0/k_B:  36.13613 [K], p_1: 3.02000 [A], shift/k_B:   0.00000000 [K], tailcorrection: no
     Ar -    O_o2 [LENNARD_JONES] p_0/k_B:  76.61723 [K], p_1: 3.21000 [A], shift/k_B:   0.00000000 [K], tailcorrection: no
     Ar -   O_com [ZERO_POTENTIAL]
     Ar -    N_n2 [LENNARD_JONES] p_0/k_B:  65.67191 [K], p_1: 3.35500 [A], shift/k_B:   0.00000000 [K], tailcorrection: no
     Ar -   N_com [ZERO_POTENTIAL]
     Ar -    C_co [LENNARD_JONES] p_0/k_B:  43.97376 [K], p_1: 3.51800 [A], shift/k_B:   0.00000000 [K], tailcorrection: no
     Ar -    O_co [LENNARD_JONES] p_0/k_B: 108.36087 [K], p_1: 3.18950 [A], shift/k_B:   0.00000000 [K], tailcorrection: no
     Ar -  COM_co [ZERO_POTENTIAL]
     Ar -   C_co2 [LENNARD_JONES] p_0/k_B:  56.87354 [K], p_1: 3.10000 [A], shift/k_B:   0.00000000 [K], tailcorrection: no
     Ar -   O_co2 [LENNARD_JONES] p_0/k_B:  97.28412 [K], p_1: 3.22500 [A], shift/k_B:   0.00000000 [K], tailcorrection: no
     Ar -   N_nh3 [LENNARD_JONES] p_0/k_B: 148.87243 [K], p_1: 3.41000 [A], shift/k_B:   0.00000000 [K], tailcorrection: no
     Ar -   H_nh3 [ZERO_POTENTIAL]
     Ar -      Hw [LENNARD_JONES] p_0/k_B:  51.50235 [K], p_1: 2.98600 [A], shift/k_B:   0.00000000 [K], tailcorrection: no
     Ar -      Ow [LENNARD_JONES] p_0/k_B:  96.66644 [K], p_1: 3.27682 [A], shift/k_B:   0.00000000 [K], tailcorrection: no
     Ar - CH4_sp3 [LENNARD_JONES] p_0/k_B: 133.15555 [K], p_1: 3.56500 [A], shift/k_B:   0.00000000 [K], tailcorrection: no
     Ar - CH3_sp3 [LENNARD_JONES] p_0/k_B: 108.35313 [K], p_1: 3.57500 [A], shift/k_B:   0.00000000 [K], tailcorrection: no
     Ar - CH2_sp3 [LENNARD_JONES] p_0/k_B:  74.23476 [K], p_1: 3.67500 [A], shift/k_B:   0.00000000 [K], tailcorrection: no
     Ar -  CH_sp3 [LENNARD_JONES] p_0/k_B:  34.61214 [K], p_1: 4.04000 [A], shift/k_B:   0.00000000 [K], tailcorrection: no
     Ar -   C_sp3 [LENNARD_JONES] p_0/k_B:   7.73951 [K], p_1: 4.90000 [A], shift/k_B:   0.00000000 [K], tailcorrection: no
     Ar -     Cu1 [LENNARD_JONES] p_0/k_B:  17.36136 [K], p_1: 3.25700 [A], shift/k_B:   0.00000000 [K], tailcorrection: no
     Ar -      O1 [LENNARD_JONES] p_0/k_B:  60.14151 [K], p_1: 3.25950 [A], shift/k_B:   0.00000000 [K], tailcorrection: no
     Ar -      C1 [LENNARD_JONES] p_0/k_B:  79.55974 [K], p_1: 3.41550 [A], shift/k_B:   0.00000000 [K], tailcorrection: no
     Ar -      C2 [LENNARD_JONES] p_0/k_B:  79.55974 [K], p_1: 3.41550 [A], shift/k_B:   0.00000000 [K], tailcorrection: no
     Ar -      C3 [LENNARD_JONES] p_0/k_B:  79.55974 [K], p_1: 3.41550 [A], shift/k_B:   0.00000000 [K], tailcorrection: no
     Ar -      H1 [LENNARD_JONES] p_0/k_B:  51.50235 [K], p_1: 2.98600 [A], shift/k_B:   0.00000000 [K], tailcorrection: no
     Ar -     Cu2 [LENNARD_JONES] p_0/k_B:  17.36136 [K], p_1: 3.25700 [A], shift/k_B:   0.00000000 [K], tailcorrection: no
     Ar -     Cu3 [LENNARD_JONES] p_0/k_B:  17.36136 [K], p_1: 3.25700 [A], shift/k_B:   0.00000000 [K], tailcorrection: no
     Ar -     Cu4 [LENNARD_JONES] p_0/k_B:  17.36136 [K], p_1: 3.25700 [A], shift/k_B:   0.00000000 [K], tailcorrection: no
     Ar -     Cu5 [LENNARD_JONES] p_0/k_B:  17.36136 [K], p_1: 3.25700 [A], shift/k_B:   0.00000000 [K], tailcorrection: no
     Ar -     Cu6 [LENNARD_JONES] p_0/k_B:  17.36136 [K], p_1: 3.25700 [A], shift/k_B:   0.00000000 [K], tailcorrection: no
     Ar -     Cu7 [LENNARD_JONES] p_0/k_B:  17.36136 [K], p_1: 3.25700 [A], shift/k_B:   0.00000000 [K], tailcorrection: no
     Ar -     Cu8 [LENNARD_JONES] p_0/k_B:  17.36136 [K], p_1: 3.25700 [A], shift/k_B:   0.00000000 [K], tailcorrection: no
     Ar -     Cu9 [LENNARD_JONES] p_0/k_B:  17.36136 [K], p_1: 3.25700 [A], shift/k_B:   0.00000000 [K], tailcorrection: no
     Ar -    Cu10 [LENNARD_JONES] p_0/k_B:  17.36136 [K], p_1: 3.25700 [A], shift/k_B:   0.00000000 [K], tailcorrection: no
     Ar -    Cu11 [LENNARD_JONES] p_0/k_B:  17.36136 [K], p_1: 3.25700 [A], shift/k_B:   0.00000000 [K], tailcorrection: no
     Ar -    Cu12 [LENNARD_JONES] p_0/k_B:  17.36136 [K], p_1: 3.25700 [A], shift/k_B:   0.00000000 [K], tailcorrection: no
     Ar -    Cu13 [LENNARD_JONES] p_0/k_B:  17.36136 [K], p_1: 3.25700 [A], shift/k_B:   0.00000000 [K], tailcorrection: no
     Ar -    Cu14 [LENNARD_JONES] p_0/k_B:  17.36136 [K], p_1: 3.25700 [A], shift/k_B:   0.00000000 [K], tailcorrection: no
     Ar -    Cu15 [LENNARD_JONES] p_0/k_B:  17.36136 [K], p_1: 3.25700 [A], shift/k_B:   0.00000000 [K], tailcorrection: no
     Ar -    Cu16 [LENNARD_JONES] p_0/k_B:  17.36136 [K], p_1: 3.25700 [A], shift/k_B:   0.00000000 [K], tailcorrection: no
     Ar -    Cu17 [LENNARD_JONES] p_0/k_B:  17.36136 [K], p_1: 3.25700 [A], shift/k_B:   0.00000000 [K], tailcorrection: no
     Ar -    Cu18 [LENNARD_JONES] p_0/k_B:  17.36136 [K], p_1: 3.25700 [A], shift/k_B:   0.00000000 [K], tailcorrection: no
     Ar -      O2 [LENNARD_JONES] p_0/k_B:  60.14151 [K], p_1: 3.25950 [A], shift/k_B:   0.00000000 [K], tailcorrection: no
     Ar -      O3 [LENNARD_JONES] p_0/k_B:  60.14151 [K], p_1: 3.25950 [A], shift/k_B:   0.00000000 [K], tailcorrection: no
     Ar -      O4 [LENNARD_JONES] p_0/k_B:  60.14151 [K], p_1: 3.25950 [A], shift/k_B:   0.00000000 [K], tailcorrection: no
     Ar -      O5 [LENNARD_JONES] p_0/k_B:  60.14151 [K], p_1: 3.25950 [A], shift/k_B:   0.00000000 [K], tailcorrection: no
     Ar -      O6 [LENNARD_JONES] p_0/k_B:  60.14151 [K], p_1: 3.25950 [A], shift/k_B:   0.00000000 [K], tailcorrection: no
     Ar -      O7 [LENNARD_JONES] p_0/k_B:  60.14151 [K], p_1: 3.25950 [A], shift/k_B:   0.00000000 [K], tailcorrection: no
     Ar -      O8 [LENNARD_JONES] p_0/k_B:  60.14151 [K], p_1: 3.25950 [A], shift/k_B:   0.00000000 [K], tailcorrection: no
     Ar -      O9 [LENNARD_JONES] p_0/k_B:  60.14151 [K], p_1: 3.25950 [A], shift/k_B:   0.00000000 [K], tailcorrection: no
     Ar -     O10 [LENNARD_JONES] p_0/k_B:  60.14151 [K], p_1: 3.25950 [A], shift/k_B:   0.00000000 [K], tailcorrection: no
     Ar -     O11 [LENNARD_JONES] p_0/k_B:  60.14151 [K], p_1: 3.25950 [A], shift/k_B:   0.00000000 [K], tailcorrection: no
     Ar -     O12 [LENNARD_JONES] p_0/k_B:  60.14151 [K], p_1: 3.25950 [A], shift/k_B:   0.00000000 [K], tailcorrection: no
     Ar -     O13 [LENNARD_JONES] p_0/k_B:  60.14151 [K], p_1: 3.25950 [A], shift/k_B:   0.00000000 [K], tailcorrection: no
     Ar -     O14 [LENNARD_JONES] p_0/k_B:  60.14151 [K], p_1: 3.25950 [A], shift/k_B:   0.00000000 [K], tailcorrection: no
     Ar -     O15 [LENNARD_JONES] p_0/k_B:  60.14151 [K], p_1: 3.25950 [A], shift/k_B:   0.00000000 [K], tailcorrection: no
     Ar -     O16 [LENNARD_JONES] p_0/k_B:  60.14151 [K], p_1: 3.25950 [A], shift/k_B:   0.00000000 [K], tailcorrection: no
     Ar -     O17 [LENNARD_JONES] p_0/k_B:  60.14151 [K], p_1: 3.25950 [A], shift/k_B:   0.00000000 [K], tailcorrection: no
     Ar -     O18 [LENNARD_JONES] p_0/k_B:  60.14151 [K], p_1: 3.25950 [A], shift/k_B:   0.00000000 [K], tailcorrection: no
     Ar -     O19 [LENNARD_JONES] p_0/k_B:  60.14151 [K], p_1: 3.25950 [A], shift/k_B:   0.00000000 [K], tailcorrection: no
     Ar -     O20 [LENNARD_JONES] p_0/k_B:  60.14151 [K], p_1: 3.25950 [A], shift/k_B:   0.00000000 [K], tailcorrection: no
     Ar -     O21 [LENNARD_JONES] p_0/k_B:  60.14151 [K], p_1: 3.25950 [A], shift/k_B:   0.00000000 [K], tailcorrection: no
     Ar -     O22 [LENNARD_JONES] p_0/k_B:  60.14151 [K], p_1: 3.25950 [A], shift/k_B:   0.00000000 [K], tailcorrection: no
     Ar -     O23 [LENNARD_JONES] p_0/k_B:  60.14151 [K], p_1: 3.25950 [A], shift/k_B:   0.00000000 [K], tailcorrection: no
     Ar -     O24 [LENNARD_JONES] p_0/k_B:  60.14151 [K], p_1: 3.25950 [A], shift/k_B:   0.00000000 [K], tailcorrection: no
     Ar -     O25 [LENNARD_JONES] p_0/k_B:  60.14151 [K], p_1: 3.25950 [A], shift/k_B:   0.00000000 [K], tailcorrection: no
     Ar -     O26 [LENNARD_JONES] p_0/k_B:  60.14151 [K], p_1: 3.25950 [A], shift/k_B:   0.00000000 [K], tailcorrection: no
     Ar -     O27 [LENNARD_JONES] p_0/k_B:  60.14151 [K], p_1: 3.25950 [A], shift/k_B:   0.00000000 [K], tailcorrection: no
     Ar -     O28 [LENNARD_JONES] p_0/k_B:  60.14151 [K], p_1: 3.25950 [A], shift/k_B:   0.00000000 [K], tailcorrection: no
     Ar -     O29 [LENNARD_JONES] p_0/k_B:  60.14151 [K], p_1: 3.25950 [A], shift/k_B:   0.00000000 [K], tailcorrection: no
     Ar -     O30 [LENNARD_JONES] p_0/k_B:  60.14151 [K], p_1: 3.25950 [A], shift/k_B:   0.00000000 [K], tailcorrection: no
     Ar -     O31 [LENNARD_JONES] p_0/k_B:  60.14151 [K], p_1: 3.25950 [A], shift/k_B:   0.00000000 [K], tailcorrection: no
     Ar -     O32 [LENNARD_JONES] p_0/k_B:  60.14151 [K], p_1: 3.25950 [A], shift/k_B:   0.00000000 [K], tailcorrection: no
     Ar -     O33 [LENNARD_JONES] p_0/k_B:  60.14151 [K], p_1: 3.25950 [A], shift/k_B:   0.00000000 [K], tailcorrection: no
     Ar -     O34 [LENNARD_JONES] p_0/k_B:  60.14151 [K], p_1: 3.25950 [A], shift/k_B:   0.00000000 [K], tailcorrection: no
     Ar -     O35 [LENNARD_JONES] p_0/k_B:  60.14151 [K], p_1: 3.25950 [A], shift/k_B:   0.00000000 [K], tailcorrection: no
     Ar -     O36 [LENNARD_JONES] p_0/k_B:  60.14151 [K], p_1: 3.25950 [A], shift/k_B:   0.00000000 [K], tailcorrection: no
     Ar -      C4 [LENNARD_JONES] p_0/k_B:  79.55974 [K], p_1: 3.41550 [A], shift/k_B:   0.00000000 [K], tailcorrection: no
     Ar -      C5 [LENNARD_JONES] p_0/k_B:  79.55974 [K], p_1: 3.41550 [A], shift/k_B:   0.00000000 [K], tailcorrection: no
     Ar -      C6 [LENNARD_JONES] p_0/k_B:  79.55974 [K], p_1: 3.41550 [A], shift/k_B:   0.00000000 [K], tailcorrection: no
     Ar -      C7 [LENNARD_JONES] p_0/k_B:  79.55974 [K], p_1: 3.41550 [A], shift/k_B:   0.00000000 [K], tailcorrection: no
     Ar -      C8 [LENNARD_JONES] p_0/k_B:  79.55974 [K], p_1: 3.41550 [A], shift/k_B:   0.00000000 [K], tailcorrection: no
     Ar -      C9 [LENNARD_JONES] p_0/k_B:  79.55974 [K], p_1: 3.41550 [A], shift/k_B:   0.00000000 [K], tailcorrection: no
     Ar -     C10 [LENNARD_JONES] p_0/k_B:  79.55974 [K], p_1: 3.41550 [A], shift/k_B:   0.00000000 [K], tailcorrection: no
     Ar -     C11 [LENNARD_JONES] p_0/k_B:  79.55974 [K], p_1: 3.41550 [A], shift/k_B:   0.00000000 [K], tailcorrection: no
     Ar -     C12 [LENNARD_JONES] p_0/k_B:  79.55974 [K], p_1: 3.41550 [A], shift/k_B:   0.00000000 [K], tailcorrection: no
     Ar -     C13 [LENNARD_JONES] p_0/k_B:  79.55974 [K], p_1: 3.41550 [A], shift/k_B:   0.00000000 [K], tailcorrection: no
     Ar -     C14 [LENNARD_JONES] p_0/k_B:  79.55974 [K], p_1: 3.41550 [A], shift/k_B:   0.00000000 [K], tailcorrection: no
     Ar -     C15 [LENNARD_JONES] p_0/k_B:  79.55974 [K], p_1: 3.41550 [A], shift/k_B:   0.00000000 [K], tailcorrection: no
     Ar -     C16 [LENNARD_JONES] p_0/k_B:  79.55974 [K], p_1: 3.41550 [A], shift/k_B:   0.00000000 [K], tailcorrection: no
     Ar -     C17 [LENNARD_JONES] p_0/k_B:  79.55974 [K], p_1: 3.41550 [A], shift/k_B:   0.00000000 [K], tailcorrection: no
     Ar -     C18 [LENNARD_JONES] p_0/k_B:  79.55974 [K], p_1: 3.41550 [A], shift/k_B:   0.00000000 [K], tailcorrection: no
     Ar -     C19 [LENNARD_JONES] p_0/k_B:  79.55974 [K], p_1: 3.41550 [A], shift/k_B:   0.00000000 [K], tailcorrection: no
     Ar -     C20 [LENNARD_JONES] p_0/k_B:  79.55974 [K], p_1: 3.41550 [A], shift/k_B:   0.00000000 [K], tailcorrection: no
     Ar -     C21 [LENNARD_JONES] p_0/k_B:  79.55974 [K], p_1: 3.41550 [A], shift/k_B:   0.00000000 [K], tailcorrection: no
     Ar -     C22 [LENNARD_JONES] p_0/k_B:  79.55974 [K], p_1: 3.41550 [A], shift/k_B:   0.00000000 [K], tailcorrection: no
     Ar -     C23 [LENNARD_JONES] p_0/k_B:  79.55974 [K], p_1: 3.41550 [A], shift/k_B:   0.00000000 [K], tailcorrection: no
     Ar -     C24 [LENNARD_JONES] p_0/k_B:  79.55974 [K], p_1: 3.41550 [A], shift/k_B:   0.00000000 [K], tailcorrection: no
     Ar -     C25 [LENNARD_JONES] p_0/k_B:  79.55974 [K], p_1: 3.41550 [A], shift/k_B:   0.00000000 [K], tailcorrection: no
     Ar -     C26 [LENNARD_JONES] p_0/k_B:  79.55974 [K], p_1: 3.41550 [A], shift/k_B:   0.00000000 [K], tailcorrection: no
     Ar -     C27 [LENNARD_JONES] p_0/k_B:  79.55974 [K], p_1: 3.41550 [A], shift/k_B:   0.00000000 [K], tailcorrection: no
     Ar -     C28 [LENNARD_JONES] p_0/k_B:  79.55974 [K], p_1: 3.41550 [A], shift/k_B:   0.00000000 [K], tailcorrection: no
     Ar -     C29 [LENNARD_JONES] p_0/k_B:  79.55974 [K], p_1: 3.41550 [A], shift/k_B:   0.00000000 [K], tailcorrection: no
     Ar -     C30 [LENNARD_JONES] p_0/k_B:  79.55974 [K], p_1: 3.41550 [A], shift/k_B:   0.00000000 [K], tailcorrection: no
     Ar -     C31 [LENNARD_JONES] p_0/k_B:  79.55974 [K], p_1: 3.41550 [A], shift/k_B:   0.00000000 [K], tailcorrection: no
     Ar -     C32 [LENNARD_JONES] p_0/k_B:  79.55974 [K], p_1: 3.41550 [A], shift/k_B:   0.00000000 [K], tailcorrection: no
     Ar -     C33 [LENNARD_JONES] p_0/k_B:  79.55974 [K], p_1: 3.41550 [A], shift/k_B:   0.00000000 [K], tailcorrection: no
     Ar -     C34 [LENNARD_JONES] p_0/k_B:  79.55974 [K], p_1: 3.41550 [A], shift/k_B:   0.00000000 [K], tailcorrection: no
     Ar -     C35 [LENNARD_JONES] p_0/k_B:  79.55974 [K], p_1: 3.41550 [A], shift/k_B:   0.00000000 [K], tailcorrection: no
     Ar -     C36 [LENNARD_JONES] p_0/k_B:  79.55974 [K], p_1: 3.41550 [A], shift/k_B:   0.00000000 [K], tailcorrection: no
     Ar -      H2 [LENNARD_JONES] p_0/k_B:  51.50235 [K], p_1: 2.98600 [A], shift/k_B:   0.00000000 [K], tailcorrection: no
     Ar -      H3 [LENNARD_JONES] p_0/k_B:  51.50235 [K], p_1: 2.98600 [A], shift/k_B:   0.00000000 [K], tailcorrection: no
     Ar -      H4 [LENNARD_JONES] p_0/k_B:  51.50235 [K], p_1: 2.98600 [A], shift/k_B:   0.00000000 [K], tailcorrection: no
     Ar -      H5 [LENNARD_JONES] p_0/k_B:  51.50235 [K], p_1: 2.98600 [A], shift/k_B:   0.00000000 [K], tailcorrection: no
     Ar -      H6 [LENNARD_JONES] p_0/k_B:  51.50235 [K], p_1: 2.98600 [A], shift/k_B:   0.00000000 [K], tailcorrection: no
     Ar -      H7 [LENNARD_JONES] p_0/k_B:  51.50235 [K], p_1: 2.98600 [A], shift/k_B:   0.00000000 [K], tailcorrection: no
     Ar -      H8 [LENNARD_JONES] p_0/k_B:  51.50235 [K], p_1: 2.98600 [A], shift/k_B:   0.00000000 [K], tailcorrection: no
     Ar -      H9 [LENNARD_JONES] p_0/k_B:  51.50235 [K], p_1: 2.98600 [A], shift/k_B:   0.00000000 [K], tailcorrection: no
     Ar -     H10 [LENNARD_JONES] p_0/k_B:  51.50235 [K], p_1: 2.98600 [A], shift/k_B:   0.00000000 [K], tailcorrection: no
     Ar -     H11 [LENNARD_JONES] p_0/k_B:  51.50235 [K], p_1: 2.98600 [A], shift/k_B:   0.00000000 [K], tailcorrection: no
     Ar -     H12 [LENNARD_JONES] p_0/k_B:  51.50235 [K], p_1: 2.98600 [A], shift/k_B:   0.00000000 [K], tailcorrection: no
     He -      He [LENNARD_JONES] p_0/k_B:  10.90000 [K], p_1: 2.64000 [A], shift/k_B:   0.00000000 [K], tailcorrection: no
     He -    O_o2 [LENNARD_JONES] p_0/k_B:  23.11060 [K], p_1: 2.83000 [A], shift/k_B:   0.00000000 [K], tailcorrection: no
     He -   O_com [ZERO_POTENTIAL]
     He -    N_n2 [LENNARD_JONES] p_0/k_B:  19.80909 [K], p_1: 2.97500 [A], shift/k_B:   0.00000000 [K], tailcorrection: no
     He -   N_com [ZERO_POTENTIAL]
     He -    C_co [LENNARD_JONES] p_0/k_B:  13.26412 [K], p_1: 3.13800 [A], shift/k_B:   0.00000000 [K], tailcorrection: no
     He -    O_co [LENNARD_JONES] p_0/k_B:  32.68566 [K], p_1: 2.80950 [A], shift/k_B:   0.00000000 [K], tailcorrection: no
     He -  COM_co [ZERO_POTENTIAL]
     He -   C_co2 [LENNARD_JONES] p_0/k_B:  17.15517 [K], p_1: 2.72000 [A], shift/k_B:   0.00000000 [K], tailcorrection: no
     He -   O_co2 [LENNARD_JONES] p_0/k_B:  29.34451 [K], p_1: 2.84500 [A], shift/k_B:   0.00000000 [K], tailcorrection: no
     He -   N_nh3 [LENNARD_JONES] p_0/k_B:  44.90546 [K], p_1: 3.03000 [A], shift/k_B:   0.00000000 [K], tailcorrection: no
     He -   H_nh3 [ZERO_POTENTIAL]
     He -      Hw [LENNARD_JONES] p_0/k_B:  15.53502 [K], p_1: 2.60600 [A], shift/k_B:   0.00000000 [K], tailcorrection: no
     He -      Ow [LENNARD_JONES] p_0/k_B:  29.15819 [K], p_1: 2.89682 [A], shift/k_B:   0.00000000 [K], tailcorrection: no
     He - CH4_sp3 [LENNARD_JONES] p_0/k_B:  40.16466 [K], p_1: 3.18500 [A], shift/k_B:   0.00000000 [K], tailcorrection: no
     He - CH3_sp3 [LENNARD_JONES] p_0/k_B:  32.68333 [K], p_1: 3.19500 [A], shift/k_B:   0.00000000 [K], tailcorrection: no
     He - CH2_sp3 [LENNARD_JONES] p_0/k_B:  22.39196 [K], p_1: 3.29500 [A], shift/k_B:   0.00000000 [K], tailcorrection: no
     He -  CH_sp3 [LENNARD_JONES] p_0/k_B:  10.44031 [K], p_1: 3.66000 [A], shift/k_B:   0.00000000 [K], tailcorrection: no
     He -   C_sp3 [LENNARD_JONES] p_0/k_B:   2.33452 [K], p_1: 4.52000 [A], shift/k_B:   0.00000000 [K], tailcorrection: no
     He -     Cu1 [LENNARD_JONES] p_0/k_B:   5.23683 [K], p_1: 2.87700 [A], shift/k_B:   0.00000000 [K], tailcorrection: no
     He -      O1 [LENNARD_JONES] p_0/k_B:  18.14092 [K], p_1: 2.87950 [A], shift/k_B:   0.00000000 [K], tailcorrection: no
     He -      C1 [LENNARD_JONES] p_0/k_B:  23.99817 [K], p_1: 3.03550 [A], shift/k_B:   0.00000000 [K], tailcorrection: no
     He -      C2 [LENNARD_JONES] p_0/k_B:  23.99817 [K], p_1: 3.03550 [A], shift/k_B:   0.00000000 [K], tailcorrection: no
     He -      C3 [LENNARD_JONES] p_0/k_B:  23.99817 [K], p_1: 3.03550 [A], shift/k_B:   0.00000000 [K], tailcorrection: no
     He -      H1 [LENNARD_JONES] p_0/k_B:  15.53502 [K], p_1: 2.60600 [A], shift/k_B:   0.00000000 [K], tailcorrection: no
     He -     Cu2 [LENNARD_JONES] p_0/k_B:   5.23683 [K], p_1: 2.87700 [A], shift/k_B:   0.00000000 [K], tailcorrection: no
     He -     Cu3 [LENNARD_JONES] p_0/k_B:   5.23683 [K], p_1: 2.87700 [A], shift/k_B:   0.00000000 [K], tailcorrection: no
     He -     Cu4 [LENNARD_JONES] p_0/k_B:   5.23683 [K], p_1: 2.87700 [A], shift/k_B:   0.00000000 [K], tailcorrection: no
     He -     Cu5 [LENNARD_JONES] p_0/k_B:   5.23683 [K], p_1: 2.87700 [A], shift/k_B:   0.00000000 [K], tailcorrection: no
     He -     Cu6 [LENNARD_JONES] p_0/k_B:   5.23683 [K], p_1: 2.87700 [A], shift/k_B:   0.00000000 [K], tailcorrection: no
[...]
	Block[ 1]            0.00000 [K]
	Block[ 2]            0.00000 [K]
	Block[ 3]            0.00000 [K]
	Block[ 4]            0.00000 [K]
	------------------------------------------------------------------------------
	Average              0.00000 [K] +/-            0.00000 [K]

Average Cation Bend angle inversion energy:
===========================================
	Block[ 0]            0.00000 [K]
	Block[ 1]            0.00000 [K]
	Block[ 2]            0.00000 [K]
	Block[ 3]            0.00000 [K]
	Block[ 4]            0.00000 [K]
	------------------------------------------------------------------------------
	Average              0.00000 [K] +/-            0.00000 [K]

Average Cation Torsion energy:
==============================
	Block[ 0]            0.00000 [K]
	Block[ 1]            0.00000 [K]
	Block[ 2]            0.00000 [K]
	Block[ 3]            0.00000 [K]
	Block[ 4]            0.00000 [K]
	------------------------------------------------------------------------------
	Average              0.00000 [K] +/-            0.00000 [K]

Average Cation Improper Torsion energy:
=======================================
	Block[ 0]            0.00000 [K]
	Block[ 1]            0.00000 [K]
	Block[ 2]            0.00000 [K]
	Block[ 3]            0.00000 [K]
	Block[ 4]            0.00000 [K]
	------------------------------------------------------------------------------
	Average              0.00000 [K] +/-            0.00000 [K]

Average Cation Bond-Bond cross term energy:
=================================================
	Block[ 0]            0.00000 [K]
	Block[ 1]            0.00000 [K]
	Block[ 2]            0.00000 [K]
	Block[ 3]            0.00000 [K]
	Block[ 4]            0.00000 [K]
	------------------------------------------------------------------------------
	Average              0.00000 [K] +/-            0.00000 [K]

Average Cation Bend-Bend cross term energy:
===========================================
	Block[ 0]            0.00000 [K]
	Block[ 1]            0.00000 [K]
	Block[ 2]            0.00000 [K]
	Block[ 3]            0.00000 [K]
	Block[ 4]            0.00000 [K]
	------------------------------------------------------------------------------
	Average              0.00000 [K] +/-            0.00000 [K]

Average Cation Bond-Bend cross term energy:
==============================================
	Block[ 0]            0.00000 [K]
	Block[ 1]            0.00000 [K]
	Block[ 2]            0.00000 [K]
	Block[ 3]            0.00000 [K]
	Block[ 4]            0.00000 [K]
	------------------------------------------------------------------------------
	Average              0.00000 [K] +/-            0.00000 [K]

Average Cation Bond-Torsion cross term energy:
==============================================
	Block[ 0]            0.00000 [K]
	Block[ 1]            0.00000 [K]
	Block[ 2]            0.00000 [K]
	Block[ 3]            0.00000 [K]
	Block[ 4]            0.00000 [K]
	------------------------------------------------------------------------------
	Average              0.00000 [K] +/-            0.00000 [K]

Average Cation Bend-Torsion cross term energy:
==============================================
	Block[ 0]            0.00000 [K]
	Block[ 1]            0.00000 [K]
	Block[ 2]            0.00000 [K]
	Block[ 3]            0.00000 [K]
	Block[ 4]            0.00000 [K]
	------------------------------------------------------------------------------
	Average              0.00000 [K] +/-            0.00000 [K]

Average Cation Intra Van der Waals energy:
==========================================
	Block[ 0]            0.00000 [K]
	Block[ 1]            0.00000 [K]
	Block[ 2]            0.00000 [K]
	Block[ 3]            0.00000 [K]
	Block[ 4]            0.00000 [K]
	------------------------------------------------------------------------------
	Average              0.00000 [K] +/-            0.00000 [K]

Average Cation Intra charge-charge Coulomb energy:
====================================
	Block[ 0]            0.00000 [K]
	Block[ 1]            0.00000 [K]
	Block[ 2]            0.00000 [K]
	Block[ 3]            0.00000 [K]
	Block[ 4]            0.00000 [K]
	------------------------------------------------------------------------------
	Average              0.00000 [K] +/-            0.00000 [K]

Average Cation Intra charge-bonddipole Coulomb energy:
====================================
	Block[ 0]            0.00000 [K]
	Block[ 1]            0.00000 [K]
	Block[ 2]            0.00000 [K]
	Block[ 3]            0.00000 [K]
	Block[ 4]            0.00000 [K]
	------------------------------------------------------------------------------
	Average              0.00000 [K] +/-            0.00000 [K]

Average Cation Intra bonddipole-bonddipole Coulomb energy:
====================================
	Block[ 0]            0.00000 [K]
	Block[ 1]            0.00000 [K]
	Block[ 2]            0.00000 [K]
	Block[ 3]            0.00000 [K]
	Block[ 4]            0.00000 [K]
	------------------------------------------------------------------------------
	Average              0.00000 [K] +/-            0.00000 [K]

Average Host-Host energy:
=========================
	Block[ 0] 0.00000            Van der Waals: 0.00000            Coulomb: 0.00000            [K]
	Block[ 1] 0.00000            Van der Waals: 0.00000            Coulomb: 0.00000            [K]
	Block[ 2] 0.00000            Van der Waals: 0.00000            Coulomb: 0.00000            [K]
	Block[ 3] 0.00000            Van der Waals: 0.00000            Coulomb: 0.00000            [K]
	Block[ 4] 0.00000            Van der Waals: 0.00000            Coulomb: 0.00000            [K]
	------------------------------------------------------------------------------
	Average   0.00000            Van der Waals: 0.000000           Coulomb: 0.00000            [K]
	      +/- 0.00000                       +/- 0.000000                +/- 0.00000            [K]

Average Adsorbate-Adsorbate energy:
===================================
	Block[ 0] 0.00000            Van der Waals: 0.00000            Coulomb: 0.00000            [K]
	Block[ 1] 0.00000            Van der Waals: 0.00000            Coulomb: 0.00000            [K]
	Block[ 2] 0.00000            Van der Waals: 0.00000            Coulomb: 0.00000            [K]
	Block[ 3] 0.00000            Van der Waals: 0.00000            Coulomb: 0.00000            [K]
	Block[ 4] 0.00000            Van der Waals: 0.00000            Coulomb: 0.00000            [K]
	------------------------------------------------------------------------------
	Average   0.00000            Van der Waals: 0.000000           Coulomb: 0.00000            [K]
	      +/- 0.00000                       +/- 0.000000                +/- 0.00000            [K]

Average Cation-Cation energy:
=============================
	Block[ 0] 0.00000            Van der Waals: 0.00000            Coulomb: 0.00000            [K]
	Block[ 1] 0.00000            Van der Waals: 0.00000            Coulomb: 0.00000            [K]
	Block[ 2] 0.00000            Van der Waals: 0.00000            Coulomb: 0.00000            [K]
	Block[ 3] 0.00000            Van der Waals: 0.00000            Coulomb: 0.00000            [K]
	Block[ 4] 0.00000            Van der Waals: 0.00000            Coulomb: 0.00000            [K]
	------------------------------------------------------------------------------
	Average   0.00000            Van der Waals: 0.000000           Coulomb: 0.00000            [K]
	      +/- 0.00000                       +/- 0.000000                +/- 0.00000            [K]

Average Host-Adsorbate energy:
==============================
	Block[ 0] 0.00000            Van der Waals: 0.00000            Coulomb: 0.00000            [K]
	Block[ 1] 0.00000            Van der Waals: 0.00000            Coulomb: 0.00000            [K]
	Block[ 2] 0.00000            Van der Waals: 0.00000            Coulomb: 0.00000            [K]
	Block[ 3] 0.00000            Van der Waals: 0.00000            Coulomb: 0.00000            [K]
	Block[ 4] 0.00000            Van der Waals: 0.00000            Coulomb: 0.00000            [K]
	------------------------------------------------------------------------------
	Average   0.00000            Van der Waals: 0.000000           Coulomb: 0.00000            [K]
	      +/- 0.00000                       +/- 0.000000                +/- 0.00000            [K]

Average Host-Cation energy:
===========================
	Block[ 0] 0.00000            Van der Waals: 0.00000            Coulomb: 0.00000            [K]
	Block[ 1] 0.00000            Van der Waals: 0.00000            Coulomb: 0.00000            [K]
	Block[ 2] 0.00000            Van der Waals: 0.00000            Coulomb: 0.00000            [K]
	Block[ 3] 0.00000            Van der Waals: 0.00000            Coulomb: 0.00000            [K]
	Block[ 4] 0.00000            Van der Waals: 0.00000            Coulomb: 0.00000            [K]
	------------------------------------------------------------------------------
	Average   0.00000            Van der Waals: 0.000000           Coulomb: 0.00000            [K]
	      +/- 0.00000                       +/- 0.000000                +/- 0.00000            [K]

Average Adsorbate-Cation energy:
================================
	Block[ 0] 0.00000            Van der Waals: 0.00000            Coulomb: 0.00000            [K]
	Block[ 1] 0.00000            Van der Waals: 0.00000            Coulomb: 0.00000            [K]
	Block[ 2] 0.00000            Van der Waals: 0.00000            Coulomb: 0.00000            [K]
	Block[ 3] 0.00000            Van der Waals: 0.00000            Coulomb: 0.00000            [K]
	Block[ 4] 0.00000            Van der Waals: 0.00000            Coulomb: 0.00000            [K]
	------------------------------------------------------------------------------
	Average   0.00000            Van der Waals: 0.000000           Coulomb: 0.00000            [K]
	      +/- 0.00000                       +/- 0.000000                +/- 0.00000            [K]

Host polarization energy:
=======================
	Block[ 0]            0.00000 [K]
	Block[ 1]            0.00000 [K]
	Block[ 2]            0.00000 [K]
	Block[ 3]            0.00000 [K]
	Block[ 4]            0.00000 [K]
	------------------------------------------------------------------------------
	Average              0.00000 [K] +/-            0.00000 [K]

Adsorbate polarization energy:
=======================
	Block[ 0]            0.00000 [K]
	Block[ 1]            0.00000 [K]
	Block[ 2]            0.00000 [K]
	Block[ 3]            0.00000 [K]
	Block[ 4]            0.00000 [K]
	------------------------------------------------------------------------------
	Average              0.00000 [K] +/-            0.00000 [K]

Cation polarization energy:
=======================
	Block[ 0]            0.00000 [K]
	Block[ 1]            0.00000 [K]
	Block[ 2]            0.00000 [K]
	Block[ 3]            0.00000 [K]
	Block[ 4]            0.00000 [K]
	------------------------------------------------------------------------------
	Average              0.00000 [K] +/-            0.00000 [K]

Host back-polarization energy:
=======================
	Block[ 0]            0.00000 [K]
	Block[ 1]            0.00000 [K]
	Block[ 2]            0.00000 [K]
	Block[ 3]            0.00000 [K]
	Block[ 4]            0.00000 [K]
	------------------------------------------------------------------------------
	Average              0.00000 [K] +/-            0.00000 [K]

Adsorbate back-polarization energy:
=======================
	Block[ 0]            0.00000 [K]
	Block[ 1]            0.00000 [K]
	Block[ 2]            0.00000 [K]
	Block[ 3]            0.00000 [K]
	Block[ 4]            0.00000 [K]
	------------------------------------------------------------------------------
	Average              0.00000 [K] +/-            0.00000 [K]

Cation back-polarization energy:
=======================
	Block[ 0]            0.00000 [K]
	Block[ 1]            0.00000 [K]
	Block[ 2]            0.00000 [K]
	Block[ 3]            0.00000 [K]
	Block[ 4]            0.00000 [K]
	------------------------------------------------------------------------------
	Average              0.00000 [K] +/-            0.00000 [K]

Tail-correction energy:
=======================
	Block[ 0]            0.00000 [K]
	Block[ 1]            0.00000 [K]
	Block[ 2]            0.00000 [K]
	Block[ 3]            0.00000 [K]
	Block[ 4]            0.00000 [K]
	------------------------------------------------------------------------------
	Average              0.00000 [K] +/-            0.00000 [K]

Distance-constraints energy:
=======================
	Block[ 0]            0.00000 [K]
	Block[ 1]            0.00000 [K]
	Block[ 2]            0.00000 [K]
	Block[ 3]            0.00000 [K]
	Block[ 4]            0.00000 [K]
	------------------------------------------------------------------------------
	Average              0.00000 [K] +/-            0.00000 [K]

Angle-constraints energy:
=======================
	Block[ 0]            0.00000 [K]
	Block[ 1]            0.00000 [K]
	Block[ 2]            0.00000 [K]
	Block[ 3]            0.00000 [K]
	Block[ 4]            0.00000 [K]
	------------------------------------------------------------------------------
	Average              0.00000 [K] +/-            0.00000 [K]

Dihedral-constraints energy:
=======================
	Block[ 0]            0.00000 [K]
	Block[ 1]            0.00000 [K]
	Block[ 2]            0.00000 [K]
	Block[ 3]            0.00000 [K]
	Block[ 4]            0.00000 [K]
	------------------------------------------------------------------------------
	Average              0.00000 [K] +/-            0.00000 [K]

Inversion-bend constraints energy:
=======================
	Block[ 0]            0.00000 [K]
	Block[ 1]            0.00000 [K]
	Block[ 2]            0.00000 [K]
	Block[ 3]            0.00000 [K]
	Block[ 4]            0.00000 [K]
	------------------------------------------------------------------------------
	Average              0.00000 [K] +/-            0.00000 [K]

Out-of-plane-distance constraints energy:
=======================
	Block[ 0]            0.00000 [K]
	Block[ 1]            0.00000 [K]
	Block[ 2]            0.00000 [K]
	Block[ 3]            0.00000 [K]
	Block[ 4]            0.00000 [K]
	------------------------------------------------------------------------------
	Average              0.00000 [K] +/-            0.00000 [K]

Exclusion-constraints energy:
=======================
	Block[ 0]            0.00000 [K]
	Block[ 1]            0.00000 [K]
	Block[ 2]            0.00000 [K]
	Block[ 3]            0.00000 [K]
	Block[ 4]            0.00000 [K]
	------------------------------------------------------------------------------
	Average              0.00000 [K] +/-            0.00000 [K]

Total energy:
=============
	Block[ 0]            0.00000 [K]
	Block[ 1]            0.00000 [K]
	Block[ 2]            0.00000 [K]
	Block[ 3]            0.00000 [K]
	Block[ 4]            0.00000 [K]
	------------------------------------------------------------------------------
	Average              0.00000 [K] +/-            0.00000 [K]

Number of molecules:
====================

Component 0 [N2]
-------------------------------------------------------------
	Block[ 0] 0.00000            [-]
	Block[ 1] 0.00000            [-]
	Block[ 2] 0.00000            [-]
	Block[ 3] 0.00000            [-]
	Block[ 4] 0.00000            [-]
	------------------------------------------------------------------------------
	Average                                      0.0000000000 +/-       0.0000000000 [-]
	Average loading absolute [molecules/unit cell]        0.0000000000 +/-       0.0000000000 [-]
	Average loading absolute [mol/kg framework]          0.0000000000 +/-       0.0000000000 [-]
	Average loading absolute [milligram/gram framework]          0.0000000000 +/-       0.0000000000 [-]
	Average loading absolute [cm^3 (STP)/gr framework]          0.0000000000 +/-       0.0000000000 [-]
	Average loading absolute [cm^3 (STP)/cm^3 framework]          0.0000000000 +/-       0.0000000000 [-]

	Block[ 0] 0.00000            [-]
	Block[ 1] 0.00000            [-]
	Block[ 2] 0.00000            [-]
	Block[ 3] 0.00000            [-]
	Block[ 4] 0.00000            [-]
	------------------------------------------------------------------------------
	Average                                      0.0000000000 +/-       0.0000000000 [-]
	Average loading excess [molecules/unit cell]        0.0000000000 +/-       0.0000000000 [-]
	Average loading excess [mol/kg framework]          0.0000000000 +/-       0.0000000000 [-]
	Average loading excess [milligram/gram framework]          0.0000000000 +/-       0.0000000000 [-]
	Average loading excess [cm^3 (STP)/gr framework]          0.0000000000 +/-       0.0000000000 [-]
	Average loading excess [cm^3 (STP)/cm^3 framework]          0.0000000000 +/-       0.0000000000 [-]


Average Widom Rosenbluth factor:
================================
	Block[ 0] 0 [-]
	Block[ 1] 0 [-]
	Block[ 2] 0 [-]
	Block[ 3] 0 [-]
	Block[ 4] 0 [-]
	------------------------------------------------------------------------------
	[N2] Average Widom Rosenbluth-weight:   0 +/- 0.000000 [-]

Average Widom chemical potential:
=================================
	Block[ 0] 0 [-]
	Block[ 1] 0 [-]
	Block[ 2] 0 [-]
	Block[ 3] 0 [-]
	Block[ 4] 0 [-]
	------------------------------------------------------------------------------
	[N2] Average chemical potential:   0 +/- 0.000000 [K]

Average Widom Ideal-gas contribution:
=====================================
	Block[ 0] 0 [-]
	Block[ 1] 0 [-]
	Block[ 2] 0 [-]
	Block[ 3] 0 [-]
	Block[ 4] 0 [-]
	------------------------------------------------------------------------------
	[N2] Average Widom Ideal-gas chemical potential:   0 +/- 0.000000 [-]

Average Widom excess contribution:
==================================
	Block[ 0] 0 [-]
	Block[ 1] 0 [-]
	Block[ 2] 0 [-]
	Block[ 3] 0 [-]
	Block[ 4] 0 [-]
	------------------------------------------------------------------------------
	[N2] Average Widom excess chemical potential:   0 +/- 0.000000 [-]

Average Gibbs Widom Rosenbluth factor:
======================================
	Block[ 0] 0 [-]
	Block[ 1] 0 [-]
	Block[ 2] 0 [-]
	Block[ 3] 0 [-]
	Block[ 4] 0 [-]
	------------------------------------------------------------------------------
	[N2] Average Gibbs Widom Rosenbluth-weight:   0 +/- 0.000000 [-]

Average Gibbs Widom chemical potential:
=======================================
	Block[ 0] 0 [-]
	Block[ 1] 0 [-]
	Block[ 2] 0 [-]
	Block[ 3] 0 [-]
	Block[ 4] 0 [-]
	------------------------------------------------------------------------------
	[N2] Average Gibbs chemical potential:   0 +/- 0.000000 [K]

Average Gibbs Widom Ideal-gas contribution:
===========================================
	Block[ 0] 0 [-]
	Block[ 1] 0 [-]
	Block[ 2] 0 [-]
	Block[ 3] 0 [-]
	Block[ 4] 0 [-]
	------------------------------------------------------------------------------
	[N2] Average Gibbs Ideal-gas chemical potential:   0 +/- 0.000000 [-]

Average Gibbs Widom excess contribution:
===========================================
	Block[ 0] 0 [-]
	Block[ 1] 0 [-]
	Block[ 2] 0 [-]
	Block[ 3] 0 [-]
	Block[ 4] 0 [-]
	------------------------------------------------------------------------------
	[N2] Average Gibbs excess chemical potential:   0 +/- 0.000000 [-]

Average Henry coefficient:
==========================
	Block[ 0] 0 [mol/kg/Pa]
	Block[ 1] 0 [mol/kg/Pa]
	Block[ 2] 0 [mol/kg/Pa]
	Block[ 3] 0 [mol/kg/Pa]
	Block[ 4] 0 [mol/kg/Pa]
	------------------------------------------------------------------------------
	[N2] Average Henry coefficient:  0 +/- 0 [mol/kg/Pa]

Average adsorption energy <U_gh>_1-<U_h>_0 obtained from Widom-insertion:
(Note: the total heat of adsorption is dH=<U_gh>_1-<U_h>_0 - <U_g> - RT)
=========================================================================

Simulation finished,  0 warnings


Tue May 26 14:56:07 2020
Simulation finished on Tuesday, May 26.
The end time was 02:56 PM.

